       N       E                     dE             d eps       ncg     rms          rms(c)
DAV:   1     0.226785752463E+03    0.22679E+03   -0.27068E+04   408   0.979E+02

DAV:   2    -0.103762684526E+03   -0.33055E+03   -0.32377E+03   504   0.238E+02

DAV:   3    -0.118605644932E+03   -0.14843E+02   -0.14786E+02   464   0.532E+01

DAV:   4    -0.118725083963E+03   -0.11944E+00   -0.11936E+00   480   0.534E+00

DAV:   5    -0.118726876635E+03   -0.17927E-02   -0.17926E-02   456   0.657E-01    0.194E+01
DAV:   6    -0.106946170851E+03    0.11781E+02   -0.41100E+01   448   0.282E+01    0.599E+00
DAV:   7    -0.106704042688E+03    0.24213E+00   -0.98320E-01   416   0.461E+00    0.367E+00
DAV:   8    -0.106516106199E+03    0.18794E+00   -0.30867E-01   440   0.352E+00    0.838E-01
DAV:   9    -0.106506573194E+03    0.95330E-02   -0.22290E-02   456   0.761E-01    0.218E-01
DAV:  10    -0.106506269439E+03    0.30376E-03   -0.18100E-03   472   0.193E-01    0.904E-03
DAV:  11    -0.106506274574E+03   -0.51354E-05   -0.32722E-05   472   0.239E-02    0.150E-02
DAV:  12    -0.106506272067E+03    0.25068E-05   -0.89168E-06   432   0.140E-02    0.289E-03
DAV:  13    -0.106506272004E+03    0.63264E-07   -0.43768E-07   280   0.333E-03

   1 F= -.10650627E+03 E0= -.10650627E+03  d E =0.000000E+00
 Found     2 degrees of freedom:
       N       E                     dE             d eps       ncg     rms          rms(c)
DAV:   1    -0.106505031671E+03    0.12404E-02   -0.12151E-02   584   0.551E-01    0.349E-02
DAV:   2    -0.106505072049E+03   -0.40378E-04   -0.76103E-04   744   0.130E-01    0.323E-02
DAV:   3    -0.106505054804E+03    0.17246E-04   -0.27335E-05   672   0.285E-02    0.192E-02
DAV:   4    -0.106505043743E+03    0.11060E-04   -0.72730E-05   704   0.373E-02    0.134E-02
DAV:   5    -0.106505039970E+03    0.37735E-05   -0.83553E-06   744   0.230E-02    0.323E-03
DAV:   6    -0.106505040143E+03   -0.17265E-06   -0.40650E-06   656   0.975E-03

   2 F= -.10650504E+03 E0= -.10650504E+03  d E =0.000000E+00
       N       E                     dE             d eps       ncg     rms          rms(c)
DAV:   1    -0.106505043391E+03   -0.34212E-05   -0.43230E-02   576   0.989E-01    0.668E-02
DAV:   2    -0.106505151925E+03   -0.10853E-03   -0.24620E-03   744   0.236E-01    0.567E-02
DAV:   3    -0.106505087913E+03    0.64012E-04   -0.94930E-05   688   0.513E-02    0.314E-02
DAV:   4    -0.106505049103E+03    0.38811E-04   -0.17927E-04   704   0.614E-02    0.207E-02
DAV:   5    -0.106505039744E+03    0.93590E-05   -0.27735E-05   720   0.411E-02    0.422E-03
DAV:   6    -0.106505040449E+03   -0.70527E-06   -0.10895E-05   680   0.149E-02    0.409E-03
DAV:   7    -0.106505040067E+03    0.38139E-06   -0.94842E-07   440   0.482E-03

   3 F= -.10650504E+03 E0= -.10650504E+03  d E =0.000000E+00
       N       E                     dE             d eps       ncg     rms          rms(c)
DAV:   1    -0.106504228722E+03    0.81173E-03   -0.12516E+00   608   0.507E+00    0.123E-01
DAV:   2    -0.106505399017E+03   -0.11703E-02   -0.16505E-02   712   0.556E-01    0.694E-02
DAV:   3    -0.106505165881E+03    0.23314E-03   -0.28897E-04   728   0.953E-02    0.315E-02
DAV:   4    -0.106505115996E+03    0.49885E-04   -0.20400E-04   712   0.717E-02    0.866E-03
DAV:   5    -0.106505115793E+03    0.20294E-06   -0.30265E-05   704   0.267E-02    0.534E-03
DAV:   6    -0.106505114683E+03    0.11098E-05   -0.13116E-06   528   0.104E-02    0.213E-03
DAV:   7    -0.106505114342E+03    0.34096E-06   -0.12461E-06   456   0.753E-03

   4 F= -.10650511E+03 E0= -.10650511E+03  d E =0.000000E+00
       N       E                     dE             d eps       ncg     rms          rms(c)
DAV:   1    -0.106504383725E+03    0.73096E-03   -0.44413E+00   576   0.954E+00    0.202E-01
DAV:   2    -0.106506045691E+03   -0.16620E-02   -0.35528E-02   720   0.800E-01    0.117E-01
DAV:   3    -0.106505132371E+03    0.91332E-03   -0.16727E-03   704   0.222E-01    0.338E-02
DAV:   4    -0.106505118346E+03    0.14026E-04   -0.45202E-04   720   0.877E-02    0.189E-02
DAV:   5    -0.106505115659E+03    0.26865E-05   -0.24789E-05   688   0.244E-02    0.106E-02
DAV:   6    -0.106505114540E+03    0.11192E-05   -0.21132E-06   528   0.106E-02    0.369E-03
DAV:   7    -0.106505114272E+03    0.26764E-06   -0.10487E-06   424   0.605E-03

   5 F= -.10650511E+03 E0= -.10650511E+03  d E =0.000000E+00

