 vasp.5.2.12 26May11 complex 
 executed on              unknown date 2013.05.12  12:57:44
 running on    8 nodes
 distr:  one band on    1 nodes,    8 groups


--------------------------------------------------------------------------------------------------------


 INCAR:
 POTCAR:   PAW Mg 02Mar1998                       
 POTCAR:   PAW O 31May2000                        
 POTCAR:   PAW Mg 02Mar1998                       
   VRHFIN =Mg: s2p0                                                             
   LEXCH  = CA                                                                  
   EATOM  =    23.1864 eV,    1.7042 Ry                                         
                                                                                
   TITEL  = PAW Mg 02Mar1998                                                    
   LULTRA =        F    use ultrasoft PP ?                                      
   IUNSCR =        1    unscreen: 0-lin 1-nonlin 2-no                           
   RPACOR =    2.000    partial core radius                                     
   POMASS =   24.305; ZVAL   =    2.000    mass and valenz                      
   RCORE  =    2.000    outmost cutoff radius                                   
   RWIGS  =    2.880; RWIGS  =    1.524    wigner-seitz radius (au A)           
   ENMAX  =  210.674; ENMIN  =  158.006 eV                                      
   ICORE  =        2    local potential                                         
   LCOR   =        T    correct aug charges                                     
   LPAW   =        T    paw PP                                                  
   EAUG   =  274.554                                                            
   DEXC   =    -.108                                                            
   RMAX   =    3.177    core radius for proj-oper                               
   RDEP   =    2.025    core radius for depl-charge                             
   QCUT   =   -3.935; QGAM   =    7.870    optimization parameters              
                                                                                
   Description                                                                  
     l     E      TYP  RCUT    TYP  RCUT                                        
     0   .000     23  2.000                                                     
     0  2.000     23  2.000                                                     
     1   .000     23  2.000                                                     
     1  2.000     23  2.000                                                     
     2   .000     23  2.000                                                     
  local pseudopotential read in
  partial core-charges read in
  atomic valenz-charges read in
  non local Contribution for L=            0  read in
    real space projection operators read in
  non local Contribution for L=            0  read in
    real space projection operators read in
  non local Contribution for L=            1  read in
    real space projection operators read in
  non local Contribution for L=            1  read in
    real space projection operators read in
    PAW grid and wavefunctions read in

   number of l-projection  operators is LMAX  =            4
   number of lm-projection operators is LMMAX =            8

 POTCAR:   PAW O 31May2000                        
   VRHFIN =O: s2p4                                                              
   LEXCH  = CA                                                                  
   EATOM  =   431.4447 eV,   31.7103 Ry                                         
                                                                                
   TITEL  = PAW O 31May2000                                                     
   LULTRA =        F    use ultrasoft PP ?                                      
   IUNSCR =        0    unscreen: 0-lin 1-nonlin 2-no                           
   RPACOR =     .000    partial core radius                                     
   POMASS =   16.000; ZVAL   =    6.000    mass and valenz                      
   RCORE  =    1.520    outmost cutoff radius                                   
   RWIGS  =    1.550; RWIGS  =     .820    wigner-seitz radius (au A)           
   ENMAX  =  400.000; ENMIN  =  300.000 eV                                      
   ICORE  =        2    local potential                                         
   LCOR   =        T    correct aug charges                                     
   LPAW   =        T    paw PP                                                  
   EAUG   =  605.392                                                            
   DEXC   =     .000                                                            
   RMAX   =    2.265    core radius for proj-oper                               
   RAUG   =    1.300    factor for augmentation sphere                          
   RDEP   =    1.550    radius for radial grids                                 
   QCUT   =   -5.518; QGAM   =   11.037    optimization parameters              
                                                                                
   Description                                                                  
     l     E      TYP  RCUT    TYP  RCUT                                        
     0   .000     23  1.200                                                     
     0  -.700     23  1.200                                                     
     1   .000     23  1.520                                                     
     1   .600     23  1.520                                                     
     2   .000      7  1.500                                                     
  local pseudopotential read in
  atomic valenz-charges read in
  non local Contribution for L=            0  read in
    real space projection operators read in
  non local Contribution for L=            0  read in
    real space projection operators read in
  non local Contribution for L=            1  read in
    real space projection operators read in
  non local Contribution for L=            1  read in
    real space projection operators read in
    PAW grid and wavefunctions read in

   number of l-projection  operators is LMAX  =            4
   number of lm-projection operators is LMMAX =            8

 PAW Mg 02Mar1998                       :
 energy of atom  1       EATOM=  -23.1864
 kinetic energy error for atom=    0.0002 (will be added to EATOM!!)
 PAW O 31May2000                        :
 energy of atom  2       EATOM= -431.4447
 kinetic energy error for atom=    0.1130 (will be added to EATOM!!)


 POSCAR: Supercell by Yi Wang                    
  positions in direct lattice
  No initial velocities read in
 exchange correlation table for  LEXCH =        2
   RHO(1)=    0.500       N(1)  =     2000
   RHO(2)=  100.500       N(2)  =     4000



--------------------------------------------------------------------------------------------------------


 ion  position               nearest neighbor table
   1  0.000  0.000  0.000-  10 2.11  11 2.11  12 2.11  13 2.11  14 2.11  15 2.11   2 2.98   3 2.98
                             5 2.98   2 2.98   4 2.98   6 2.98   3 2.98   4 2.98   7 2.98   5 2.98
   2  0.000  0.000  0.500-   9 2.11  11 2.11  12 2.11  13 2.11  14 2.11  16 2.11   1 2.98   4 2.98
                             6 2.98   1 2.98   3 2.98   5 2.98   3 2.98   4 2.98   8 2.98   5 2.98
   3  0.000  0.500  0.000-   9 2.11  10 2.11  12 2.11  13 2.11  15 2.11  16 2.11   1 2.98   4 2.98
                             7 2.98   2 2.98   4 2.98   8 2.98   1 2.98   2 2.98   5 2.98   5 2.98
   4  0.000  0.500  0.500-   9 2.11  10 2.11  11 2.11  14 2.11  15 2.11  16 2.11   2 2.98   3 2.98
                             8 2.98   1 2.98   3 2.98   7 2.98   1 2.98   2 2.98   6 2.98   6 2.98
   5  0.500  0.000  0.000-   9 2.11  10 2.11  11 2.11  14 2.11  15 2.11  16 2.11   1 2.98   6 2.98
                             7 2.98   2 2.98   6 2.98   8 2.98   3 2.98   7 2.98   8 2.98   1 2.98
   6  0.500  0.000  0.500-   9 2.11  10 2.11  12 2.11  13 2.11  15 2.11  16 2.11   2 2.98   5 2.98
                             8 2.98   1 2.98   5 2.98   7 2.98   4 2.98   7 2.98   8 2.98   1 2.98
   7  0.500  0.500  0.000-   9 2.11  11 2.11  12 2.11  13 2.11  14 2.11  16 2.11   3 2.98   5 2.98
                             8 2.98   4 2.98   6 2.98   8 2.98   1 2.98   5 2.98   6 2.98   1 2.98
   8  0.500  0.500  0.500-  10 2.11  11 2.11  12 2.11  13 2.11  14 2.11  15 2.11   4 2.98   6 2.98
                             7 2.98   3 2.98   5 2.98   7 2.98   2 2.98   5 2.98   6 2.98   2 2.98
   9  0.250  0.250  0.250-   2 2.11   3 2.11   4 2.11   5 2.11   6 2.11   7 2.11
  10  0.250  0.250  0.750-   1 2.11   3 2.11   4 2.11   5 2.11   6 2.11   8 2.11
  11  0.250  0.750  0.250-   1 2.11   2 2.11   4 2.11   5 2.11   7 2.11   8 2.11
  12  0.250  0.750  0.750-   1 2.11   2 2.11   3 2.11   6 2.11   7 2.11   8 2.11
  13  0.750  0.250  0.250-   1 2.11   2 2.11   3 2.11   6 2.11   7 2.11   8 2.11
  14  0.750  0.250  0.750-   1 2.11   2 2.11   4 2.11   5 2.11   7 2.11   8 2.11
  15  0.750  0.750  0.250-   1 2.11   3 2.11   4 2.11   5 2.11   6 2.11   8 2.11
  16  0.750  0.750  0.750-   2 2.11   3 2.11   4 2.11   5 2.11   6 2.11   7 2.11

  LATTYP: Found a face centered cubic cell.
 ALAT       =     8.4240000000
  
  Lattice vectors:
  
 A1 = (   0.0000000000,   4.2120000000,   4.2120000000)
 A2 = (   4.2120000000,   0.0000000000,   4.2120000000)
 A3 = (   4.2120000000,   4.2120000000,   0.0000000000)
 Subroutine PRICEL returns following result:
 
  LATTYP: Found a face centered cubic cell.
 ALAT       =     4.2120000000
  
  Lattice vectors:
  
 A1 = (   0.0000000000,   2.1060000000,   2.1060000000)
 A2 = (   2.1060000000,   0.0000000000,   2.1060000000)
 A3 = (   2.1060000000,   2.1060000000,   0.0000000000)
 
   8 primitive cells build up your supercell.
 

Analysis of symmetry for initial positions (statically):

 Routine SETGRP: Setting up the symmetry group for a 
 face centered cubic supercell.


 Subroutine GETGRP returns: Found 48 space group operations
 (whereof 48 operations were pure point group operations)
 out of a pool of 48 trial point group operations.


The static configuration has the point symmetry O_h .

Analysis of symmetry for dynamics (positions and initial velocities):

 Subroutine DYNSYM returns: Found 48 space group operations
 (whereof 48 operations were pure point group operations)
 out of a pool of 48 trial space group operations
 (whereof 48 operations were pure point group operations)
 and found also     8 'primitive' translations


The dynamic configuration has the point symmetry O_h .


 KPOINTS: Magnesium Oxide                         

Automatic generation of k-mesh.
 
 Subroutine IBZKPT returns following result:
 ===========================================
 
 Found      4 irreducible k-points:
 
 Following reciprocal coordinates:
            Coordinates               Weight
  0.000000  0.000000  0.000000      1.000000
  0.333333  0.000000  0.000000      8.000000
  0.333333  0.333333  0.000000      6.000000
 -0.333333  0.333333  0.000000     12.000000
 
 Following cartesian coordinates:
            Coordinates               Weight
  0.000000  0.000000  0.000000      1.000000
 -0.039569  0.039569  0.039569      8.000000
  0.000000  0.000000  0.079139      6.000000
  0.079139 -0.079139  0.000000     12.000000
 
 TETIRR: Found      7 inequivalent tetrahedra from      162
 
 Subroutine IBZKPT_HF returns following result:
 ==============================================
 
 Found     27 k-points in 1st BZ
 the following     27 k-points will be used (e.g. in the exchange kernel)
 Following reciprocal coordinates:   # in IRBZ
  0.000000  0.000000  0.000000       1 t-inv F
  0.333333  0.000000  0.000000       2 t-inv F
  0.333333  0.333333  0.000000       3 t-inv F
 -0.333333  0.333333  0.000000       4 t-inv F
 -0.333333  0.000000  0.000000       2 t-inv F
  0.000000  0.333333  0.000000       2 t-inv F
  0.000000 -0.333333  0.000000       2 t-inv F
  0.000000  0.000000  0.333333       2 t-inv F
  0.000000  0.000000 -0.333333       2 t-inv F
  0.333333  0.333333  0.333333       2 t-inv F
 -0.333333 -0.333333 -0.333333       2 t-inv F
 -0.333333 -0.333333  0.000000       3 t-inv F
  0.000000  0.333333  0.333333       3 t-inv F
  0.000000 -0.333333 -0.333333       3 t-inv F
  0.333333  0.000000  0.333333       3 t-inv F
 -0.333333  0.000000 -0.333333       3 t-inv F
  0.333333 -0.333333  0.000000       4 t-inv F
  0.000000 -0.333333  0.333333       4 t-inv F
  0.000000  0.333333 -0.333333       4 t-inv F
  0.333333  0.000000 -0.333333       4 t-inv F
 -0.333333  0.000000  0.333333       4 t-inv F
  0.333333  0.333333  0.666667       4 t-inv F
 -0.333333 -0.333333 -0.666667       4 t-inv F
 -0.333333 -0.666667 -0.333333       4 t-inv F
  0.333333  0.666667  0.333333       4 t-inv F
 -0.666667 -0.333333 -0.333333       4 t-inv F
  0.666667  0.333333  0.333333       4 t-inv F


--------------------------------------------------------------------------------------------------------




 Dimension of arrays:
   k-points           NKPTS =      4   k-points in BZ     NKDIM =      4   number of bands    NBANDS=     48
   number of dos      NEDOS =    301   number of ions     NIONS =     16
   non local maximal  LDIM  =      4   non local SUM 2l+1 LMDIM =      8
   total plane-waves  NPLWV =  64000
   max r-space proj   IRMAX =      1   max aug-charges    IRDMAX=  18389
   dimension x,y,z NGX =    40 NGY =   40 NGZ =   40
   dimension x,y,z NGXF=    80 NGYF=   80 NGZF=   80
   support grid    NGXF=    80 NGYF=   80 NGZF=   80
   ions per type =               8   8
 NGX,Y,Z   is equivalent  to a cutoff of  11.16, 11.16, 11.16 a.u.
 NGXF,Y,Z  is equivalent  to a cutoff of  22.33, 22.33, 22.33 a.u.


 I would recommend the setting:
   dimension x,y,z NGX =    39 NGY =   39 NGZ =   39
 SYSTEM =  unknown system                          
 POSCAR =  Supercell by Yi Wang                    

 Startparameter for this run:
   NWRITE =      2    write-flag & timer
   PREC   = a         normal or accurate (medium, high low for compatibility)
   ISTART =      0    job   : 0-new  1-cont  2-samecut
   ICHARG =      2    charge: 1-file 2-atom 10-const
   ISPIN  =      1    spin polarized calculation?
   LNONCOLLINEAR =      F non collinear calculations
   LSORBIT =      F    spin-orbit coupling
   INIWAV =      1    electr: 0-lowe 1-rand  2-diag
   LASPH  =      F    aspherical Exc in radial PAW
   METAGGA=      F    non-selfconsistent MetaGGA calc.

 Electronic Relaxation 1
   ENCUT  =  400.0 eV  29.40 Ry    5.42 a.u.   9.71  9.71  9.71*2*pi/ulx,y,z
   ENINI  =  400.0     initial cutoff
   ENAUG  =  605.4 eV  augmentation charge cutoff
   NELM   =     60;   NELMIN=  2; NELMDL= -5     # of ELM steps 
   EDIFF  = 0.1E-05   stopping-criterion for ELM
   LREAL  =      F    real-space projection
   LCOMPAT=      F    compatible to vasp.4.4
   GGA_COMPAT  = T    GGA compatible to vasp.4.4-vasp.4.6
   LMAXPAW     = -100 max onsite density
   LMAXMIX     =    2 max onsite mixed and CHGCAR
   VOSKOWN=      0    Vosko Wilk Nusair interpolation
   ROPT   =    0.00000   0.00000
 Ionic relaxation
   EDIFFG = 0.1E-04   stopping-criterion for IOM
   NSW    =    229    number of steps for IOM
   NBLOCK =      1;   KBLOCK =      1    inner block; outer block 
   IBRION =      6    ionic relax: 0-MD 1-quasi-New 2-CG
   NFREE  =      2    steps in history (QN), initial steepest desc. (CG)
   ISIF   =      0    stress and relaxation
   IWAVPR =     11    prediction:  0-non 1-charg 2-wave 3-comb
   ISYM   =      2    0-nonsym 1-usesym 2-fastsym
   LCORR  =      T    Harris-Foulkes like correction to forces

   POTIM  = 0.5000    time-step for ionic-motion
   TEIN   =    0.0    initial temperature
   TEBEG  =    0.0;   TEEND  =   0.0 temperature during run
   SMASS  =  -3.00    Nose mass-parameter (am)
   estimated Nose-frequenzy (Omega)   =  0.10E-29 period in steps =****** mass=  -0.811E-27a.u.
   SCALEE = 1.0000    scale energy and forces
   NPACO  =    256;   APACO  = 16.0  distance and # of slots for P.C.
   PSTRESS=    0.0 pullay stress

  Mass of Ions in am
   POMASS =  24.31 16.00
  Ionic Valenz
   ZVAL   =   2.00  6.00
  Atomic Wigner-Seitz radii
   RWIGS  =  -1.00 -1.00
  virtual crystal weights 
   VCA    =   1.00  1.00
   NELECT =      64.0000    total number of electrons
   NUPDOWN=      -1.0000    fix difference up-down

 DOS related values:
   EMIN   =  10.00;   EMAX   =-10.00  energy-range for DOS
   EFERMI =   0.00
   ISMEAR =    -5;   SIGMA  =   0.20  broadening in eV -4-tet -1-fermi 0-gaus

 Electronic relaxation 2 (details)
   IALGO  =     38    algorithm
   LDIAG  =      T    sub-space diagonalisation (order eigenvalues)
   LSUBROT=      T    optimize rotation matrix (better conditioning)
   TURBO    =      0    0=normal 1=particle mesh
   IRESTART =      0    0=no restart 2=restart with 2 vectors
   NREBOOT  =      0    no. of reboots
   NMIN     =      0    reboot dimension
   EREF     =   0.00    reference energy to select bands
   IMIX   =      4    mixing-type and parameters
     AMIX     =   0.40;   BMIX     =  1.00
     AMIX_MAG =   1.60;   BMIX_MAG =  1.00
     AMIN     =   0.10
     WC   =   100.;   INIMIX=   1;  MIXPRE=   1

 Intra band minimization:
   WEIMIN = 0.0010     energy-eigenvalue tresh-hold
   EBREAK =  0.61E-08  absolut break condition
   DEPER  =   0.30     relativ break condition  

   TIME   =   0.40     timestep for ELM

  volume/ion in A,a.u.               =       9.34        63.03
  Fermi-wavevector in a.u.,A,eV,Ry     =   1.233966  2.331857 20.717205  1.522672
  Thomas-Fermi vector in A             =   2.368675

 Write flags
   LWAVE  =      T    write WAVECAR
   LCHARG =      T    write CHGCAR
   LVTOT  =      F    write LOCPOT, total local potential
   LVHAR  =      F    write LOCPOT, Hartree potential only
   LELF   =      F    write electronic localiz. function (ELF)
   LORBIT =      0    0 simple, 1 ext, 2 COOP (PROOUT)


 Dipole corrections
   LMONO  =      F    monopole corrections only (constant potential shift)
   LDIPOL =      F    correct potential (dipole corrections)
   IDIPOL =      0    1-x, 2-y, 3-z, 4-all directions 
   EPSILON=  1.0000000 bulk dielectric constant

 Exchange correlation treatment:
   GGA     =    --    GGA type
   LEXCH   =     2    internal setting for exchange type
   VOSKOWN=      0    Vosko Wilk Nusair interpolation
   LHFCALC =     F    Hartree Fock is set to
   LHFONE  =     F    Hartree Fock one center treatment
   AEXX    =    0.0000 exact exchange contribution

 Linear response parameters
   LEPSILON=     F    determine dielectric tensor
   LRPA    =     F    only Hartree local field effects (RPA)
   LNABLA  =     F    use nabla operator in PAW spheres
   LVEL    =     F    velocity operator in full k-point grid
   LINTERFAST=   F  fast interpolation
   KINTER  =     0    interpolate to denser k-point grid
   CSHIFT  =0.1000    complex shift for real part using Kramers Kronig
   OMEGAMAX=  -1.0    maximum frequency
   RTIME   =    0.100 relaxation time in fs

 Orbital magnetization related:
   ORBITALMAG=     F  switch on orbital magnetization
   LCHIMAG   =     F  perturbation theory with respect to B field
   DQ        =  0.001000  dq finite difference perturbation B field



--------------------------------------------------------------------------------------------------------


 finite differences with symmetry
 charge density and potential will be updated during run
 non-spin polarized calculation
 Variant of blocked Davidson
 Davidson routine will perform the subspace rotation
 perform sub-space diagonalisation
    after iterative eigenvector-optimisation
 modified Broyden-mixing scheme, WC =      100.0
 initial mixing is a Kerker type mixing with AMIX =  0.4000 and BMIX =      1.0000
 Hartree-type preconditioning will be used
 using additional bands            16
 reciprocal scheme for non local part
 use partial core corrections
 calculate Harris-corrections to forces 
   (improved forces if not selfconsistent)
 use of overlap-Matrix (Vanderbilt PP)
 Fermi weights with tetrahedron method with Bloechl corrections


--------------------------------------------------------------------------------------------------------


  energy-cutoff  :      400.00
  volume of cell :      149.45
      direct lattice vectors                 reciprocal lattice vectors
     0.000000000  4.212000000  4.212000000    -0.118708452  0.118708452  0.118708452
     4.212000000  0.000000000  4.212000000     0.118708452 -0.118708452  0.118708452
     4.212000000  4.212000000  0.000000000     0.118708452  0.118708452 -0.118708452

  length of vectors
     5.956667525  5.956667525  5.956667525     0.205609070  0.205609070  0.205609070



 k-points in units of 2pi/SCALE and weight: Magnesium Oxide                         
   0.00000000  0.00000000  0.00000000       0.037
  -0.03956948  0.03956948  0.03956948       0.296
   0.00000000  0.00000000  0.07913897       0.222
   0.07913897 -0.07913897  0.00000000       0.444

 k-points in reciprocal lattice and weights: Magnesium Oxide                         
   0.00000000  0.00000000  0.00000000       0.037
   0.33333333  0.00000000  0.00000000       0.296
   0.33333333  0.33333333  0.00000000       0.222
  -0.33333333  0.33333333  0.00000000       0.444

 position of ions in fractional coordinates (direct lattice) 
   0.00000000  0.00000000  0.00000000
   0.00000000  0.00000000  0.50000000
   0.00000000  0.50000000  0.00000000
   0.00000000  0.50000000  0.50000000
   0.50000000  0.00000000  0.00000000
   0.50000000  0.00000000  0.50000000
   0.50000000  0.50000000  0.00000000
   0.50000000  0.50000000  0.50000000
   0.25000000  0.25000000  0.25000000
   0.25000000  0.25000000  0.75000000
   0.25000000  0.75000000  0.25000000
   0.25000000  0.75000000  0.75000000
   0.75000000  0.25000000  0.25000000
   0.75000000  0.25000000  0.75000000
   0.75000000  0.75000000  0.25000000
   0.75000000  0.75000000  0.75000000

 position of ions in cartesian coordinates  (Angst):
   0.00000000  0.00000000  0.00000000
   2.10600000  2.10600000  0.00000000
   2.10600000  0.00000000  2.10600000
   4.21200000  2.10600000  2.10600000
   0.00000000  2.10600000  2.10600000
   2.10600000  4.21200000  2.10600000
   2.10600000  2.10600000  4.21200000
   4.21200000  4.21200000  4.21200000
   2.10600000  2.10600000  2.10600000
   4.21200000  4.21200000  2.10600000
   4.21200000  2.10600000  4.21200000
   6.31800000  4.21200000  4.21200000
   2.10600000  4.21200000  4.21200000
   4.21200000  6.31800000  4.21200000
   4.21200000  4.21200000  6.31800000
   6.31800000  6.31800000  6.31800000



--------------------------------------------------------------------------------------------------------


 k-point  1 :  0.00000.00000.0000  plane waves:    2733
 k-point  2 :  0.33330.00000.0000  plane waves:    2695
 k-point  3 :  0.33330.33330.0000  plane waves:    2702
 k-point  4 :  -.33330.33330.0000  plane waves:    2708

 maximum and minimum number of plane-waves per node :      2733     2695

 maximum number of plane-waves:      2733
 maximum index in each direction: 
   IXMAX=   10   IYMAX=    9   IZMAX=    9
   IXMIN=  -10   IYMIN=  -10   IZMIN=   -9

 WARNING: aliasing errors must be expected set NGX to  42 to avoid them
 NGY is ok and might be reduce to  40
 NGZ is ok and might be reduce to  38
 aliasing errors are usually negligible using standard VASP settings
 and one can safely disregard these warnings

 serial   3D FFT for wavefunctions
 parallel 3D FFT for charge:
    minimum data exchange during FFTs selected (reduces bandwidth)


 total amount of memory used by VASP on root node    41946. kBytes
========================================================================

   base      :      30000. kBytes
   nonl-proj :       2101. kBytes
   fftplans  :       2464. kBytes
   grid      :       6233. kBytes
   one-center:         49. kBytes
   wavefun   :       1099. kBytes

 Broyden mixing: mesh for mixing (old mesh)
   NGX = 19   NGY = 19   NGZ = 19
  (NGX  = 80   NGY  = 80   NGZ  = 80)
  gives a total of   6859 points

 initial charge density was supplied:
 charge density of overlapping atoms calculated
 number of electron      64.0000000 magnetization 
 keeping initial charge density in first step


--------------------------------------------------------------------------------------------------------


 Maximum index for augmentation-charges          2209 (set IRDMAX)


--------------------------------------------------------------------------------------------------------


 First call to EWALD:  gamma=   0.334
 Maximum number of real-space cells 3x 3x 3
 Maximum number of reciprocal cells 3x 3x 3

    FEWALD:  cpu time    0.00: real time    0.01


----------------------------------------- Iteration    1(   1)  ---------------------------------------


    POTLOK:  cpu time    0.03: real time    0.04
    SETDIJ:  cpu time    0.01: real time    0.02
     EDDAV:  cpu time    0.62: real time    0.93
 BZINTS: Fermi energy: 16.440400; 64.000000 electrons
         Band energy: 146.334338;  BLOECHL correction:  0.000000
       DOS:  cpu time    0.00: real time    0.00
    --------------------------------------------
      LOOP:  cpu time    0.66: real time    1.01

 eigenvalue-minimisations  :   408
 total energy-change (2. order) : 0.2267858E+03  (-0.2706751E+04)
 number of electron      64.0000000 magnetization 
 augmentation part       64.0000000 magnetization 

 Free energy of the ion-electron system (eV)
  ---------------------------------------------------
  alpha Z        PSCENC =        33.29328806
  Ewald energy   TEWEN  =     -2865.57248191
  -1/2 Hartree   DENC   =      -960.80578770
  -exchange  EXHF       =         0.00000000
  -V(xc)+E(xc)   XCENC  =       166.19994294
  PAW double counting   =      2056.17291390    -1984.97938003
  entropy T*S    EENTRO =         0.00000000
  eigenvalues    EBANDS =       146.33433784
  atomic energy  EATOM  =      3636.14291937
  ---------------------------------------------------
  free energy    TOTEN  =       226.78575246 eV

  energy without entropy =      226.78575246  energy(sigma->0) =      226.78575246


--------------------------------------------------------------------------------------------------------


 E-fermi :  16.4404     XC(G=0): -11.4131     alpha+bet :-14.9973


 k-point   1 :       0.0000    0.0000    0.0000
  band No.  band energies     occupation 
      1     -11.0331      2.00000
      2      -9.1654      2.00000
      3      -8.7102      2.00000
      4      -8.0705      2.00000
      5      -7.5161      2.00000
      6      -7.1528      2.00000
      7      -6.7512      2.00000
      8      -5.7822      2.00000
      9       0.4715      2.00000
     10       0.6850      2.00000
     11       0.9584      2.00000
     12       1.2249      2.00000
     13       1.4220      2.00000
     14       2.2033      2.00000
     15       2.9264      2.00000
     16       4.1671      2.00000
     17       4.4879      2.00000
     18       4.9610      2.00000
     19       5.2419      2.00000
     20       5.8821      2.00000
     21       6.2486      2.00000
     22       6.6834      2.00000
     23       7.4932      2.00000
     24       7.8938      2.00000
     25       8.1172      2.00000
     26       8.9910      2.00000
     27       9.6539      2.00000
     28      10.7324      2.00000
     29      11.5966      2.00000
     30      12.8616      2.00000
     31      15.0123      2.00000
     32      15.9282      2.00000
     33      16.7050      0.00000
     34      17.1430      0.00000
     35      18.1143      0.00000
     36      19.5702      0.00000
     37      19.9334      0.00000
     38      20.8811      0.00000
     39      22.2984      0.00000
     40      22.6168      0.00000
     41      23.4585      0.00000
     42      24.0999      0.00000
     43      24.6786      0.00000
     44      26.4451      0.00000
     45      27.0449      0.00000
     46      28.4810      0.00000
     47      29.4745      0.00000
     48      30.7820      0.00000

 k-point   2 :       0.3333    0.0000    0.0000
  band No.  band energies     occupation 
      1     -11.5920      2.00000
      2      -9.7243      2.00000
      3      -9.4214      2.00000
      4      -8.8117      2.00000
      5      -8.2458      2.00000
      6      -7.5308      2.00000
      7      -7.0624      2.00000
      8      -6.5929      2.00000
      9       0.8509      2.00000
     10       0.9738      2.00000
     11       1.3812      2.00000
     12       1.5439      2.00000
     13       1.9721      2.00000
     14       2.1958      2.00000
     15       2.6382      2.00000
     16       3.2444      2.00000
     17       3.5957      2.00000
     18       3.6910      2.00000
     19       4.1261      2.00000
     20       4.4282      2.00000
     21       4.7152      2.00000
     22       5.3323      2.00000
     23       5.8211      2.00000
     24       6.5742      2.00000
     25       7.2260      2.00000
     26       8.0134      2.00000
     27       8.5835      2.00000
     28       9.4660      2.00000
     29      11.0136      2.00000
     30      12.3980      2.00000
     31      13.6907      2.00000
     32      16.4339      2.00000
     33      18.2392      0.00000
     34      19.3032      0.00000
     35      19.9118      0.00000
     36      20.5759      0.00000
     37      21.0706      0.00000
     38      21.4487      0.00000
     39      22.4252      0.00000
     40      23.1968      0.00000
     41      23.7922      0.00000
     42      24.3493      0.00000
     43      25.1785      0.00000
     44      26.7825      0.00000
     45      27.3620      0.00000
     46      28.2336      0.00000
     47      29.1790      0.00000
     48      31.0965      0.00000

 k-point   3 :       0.3333    0.3333    0.0000
  band No.  band energies     occupation 
      1     -10.0202      2.00000
      2      -9.5627      2.00000
      3      -9.2522      2.00000
      4      -8.8434      2.00000
      5      -8.2209      2.00000
      6      -7.9419      2.00000
      7      -7.3225      2.00000
      8      -6.3170      2.00000
      9       1.0942      2.00000
     10       1.1891      2.00000
     11       1.8594      2.00000
     12       2.0177      2.00000
     13       2.5704      2.00000
     14       2.7664      2.00000
     15       3.1941      2.00000
     16       3.7690      2.00000
     17       3.9914      2.00000
     18       4.3798      2.00000
     19       4.6136      2.00000
     20       4.8671      2.00000
     21       5.1946      2.00000
     22       5.6306      2.00000
     23       5.7671      2.00000
     24       6.4738      2.00000
     25       6.8546      2.00000
     26       7.5208      2.00000
     27       8.6654      2.00000
     28       9.4872      2.00000
     29      10.8123      2.00000
     30      13.0421      2.00000
     31      14.4498      2.00000
     32      16.1963      2.00000
     33      18.0100      0.00000
     34      18.5623      0.00000
     35      19.0447      0.00000
     36      19.7790      0.00000
     37      20.7026      0.00000
     38      20.9605      0.00000
     39      21.9022      0.00000
     40      22.1870      0.00000
     41      22.7353      0.00000
     42      22.9475      0.00000
     43      24.1111      0.00000
     44      25.6490      0.00000
     45      26.5536      0.00000
     46      27.2393      0.00000
     47      28.6901      0.00000
     48      30.8208      0.00000

 k-point   4 :      -0.3333    0.3333    0.0000
  band No.  band energies     occupation 
      1     -10.7097      2.00000
      2     -10.5124      2.00000
      3      -9.9340      2.00000
      4      -9.6157      2.00000
      5      -8.9819      2.00000
      6      -7.8603      2.00000
      7      -6.8463      2.00000
      8      -6.5182      2.00000
      9       1.1152      2.00000
     10       1.7092      2.00000
     11       1.8167      2.00000
     12       2.0958      2.00000
     13       2.3450      2.00000
     14       2.5857      2.00000
     15       2.9533      2.00000
     16       3.2024      2.00000
     17       3.4989      2.00000
     18       3.7383      2.00000
     19       4.1434      2.00000
     20       4.6888      2.00000
     21       5.2801      2.00000
     22       5.6112      2.00000
     23       6.1135      2.00000
     24       6.6295      2.00000
     25       7.1051      2.00000
     26       8.1372      2.00000
     27       9.1889      2.00000
     28      10.0443      2.00000
     29      10.6909      2.00000
     30      11.3024      2.00000
     31      13.0513      2.00000
     32      14.1710      2.00000
     33      18.3931      0.00000
     34      19.1252      0.00000
     35      19.7317      0.00000
     36      19.9817      0.00000
     37      21.1120      0.00000
     38      21.9700      0.00000
     39      22.3653      0.00000
     40      22.5894      0.00000
     41      23.2303      0.00000
     42      23.9096      0.00000
     43      24.9867      0.00000
     44      25.2531      0.00000
     45      26.4478      0.00000
     46      26.8483      0.00000
     47      29.2996      0.00000
     48      31.9422      0.00000


----------------------------------------- Iteration    1(   2)  ---------------------------------------


     EDDAV:  cpu time    0.69: real time    0.69
 BZINTS: Fermi energy:  3.266800; 64.000000 electrons
         Band energy:-184.214099;  BLOECHL correction:  0.000000
       DOS:  cpu time    0.00: real time    0.00
    --------------------------------------------
      LOOP:  cpu time    0.69: real time    0.69

 eigenvalue-minimisations  :   504
 total energy-change (2. order) :-0.3305484E+03  (-0.3237722E+03)
 number of electron      64.0000000 magnetization 
 augmentation part       64.0000000 magnetization 

 Free energy of the ion-electron system (eV)
  ---------------------------------------------------
  alpha Z        PSCENC =        33.29328806
  Ewald energy   TEWEN  =     -2865.57248191
  -1/2 Hartree   DENC   =      -960.80578770
  -exchange  EXHF       =         0.00000000
  -V(xc)+E(xc)   XCENC  =       166.19994294
  PAW double counting   =      2056.17291390    -1984.97938003
  entropy T*S    EENTRO =         0.00000000
  eigenvalues    EBANDS =      -184.21409915
  atomic energy  EATOM  =      3636.14291937
  ---------------------------------------------------
  free energy    TOTEN  =      -103.76268453 eV

  energy without entropy =     -103.76268453  energy(sigma->0) =     -103.76268453


--------------------------------------------------------------------------------------------------------


 E-fermi :   3.2668     XC(G=0): -11.4131     alpha+bet :-14.9973


 k-point   1 :       0.0000    0.0000    0.0000
  band No.  band energies     occupation 
      1     -14.4234      2.00000
      2     -13.4032      2.00000
      3     -13.3473      2.00000
      4     -13.2264      2.00000
      5     -13.1035      2.00000
      6     -13.0484      2.00000
      7     -12.9816      2.00000
      8     -12.8869      2.00000
      9      -1.5955      2.00000
     10      -1.5720      2.00000
     11      -1.5581      2.00000
     12      -1.5175      2.00000
     13      -1.1573      2.00000
     14      -1.1035      2.00000
     15      -1.0313      2.00000
     16       0.9877      2.00000
     17       0.9968      2.00000
     18       1.0445      2.00000
     19       1.0662      2.00000
     20       1.1267      2.00000
     21       1.1969      2.00000
     22       1.4993      2.00000
     23       1.5216      2.00000
     24       1.5711      2.00000
     25       1.6060      2.00000
     26       1.7050      2.00000
     27       1.8158      2.00000
     28       1.9421      2.00000
     29       2.0683      2.00000
     30       2.2499      2.00000
     31       2.9181      2.00000
     32       3.1861      2.00000
     33       9.1889      0.00000
     34      12.3156      0.00000
     35      12.4193      0.00000
     36      12.4796      0.00000
     37      12.7734      0.00000
     38      13.8409      0.00000
     39      14.3191      0.00000
     40      14.6688      0.00000
     41      14.8794      0.00000
     42      14.9073      0.00000
     43      15.7125      0.00000
     44      16.2242      0.00000
     45      16.5176      0.00000
     46      17.0874      0.00000
     47      18.1995      0.00000
     48      19.7501      0.00000

 k-point   2 :       0.3333    0.0000    0.0000
  band No.  band energies     occupation 
      1     -14.2814      2.00000
      2     -13.7015      2.00000
      3     -13.3863      2.00000
      4     -13.3172      2.00000
      5     -13.2237      2.00000
      6     -13.1719      2.00000
      7     -13.0845      2.00000
      8     -12.9584      2.00000
      9      -1.2250      2.00000
     10      -1.1901      2.00000
     11      -1.1595      2.00000
     12      -0.9089      2.00000
     13      -0.8939      2.00000
     14      -0.8446      2.00000
     15      -0.7889      2.00000
     16       0.5749      2.00000
     17       0.6275      2.00000
     18       0.7069      2.00000
     19       0.9399      2.00000
     20       0.9905      2.00000
     21       1.0198      2.00000
     22       1.0927      2.00000
     23       1.1572      2.00000
     24       1.1970      2.00000
     25       1.2619      2.00000
     26       1.4117      2.00000
     27       1.5161      2.00000
     28       1.5721      2.00000
     29       1.7570      2.00000
     30       1.9550      2.00000
     31       1.9863      2.00000
     32       2.7031      2.00000
     33      10.8877      0.00000
     34      12.0041      0.00000
     35      13.3088      0.00000
     36      13.5460      0.00000
     37      13.6910      0.00000
     38      14.3819      0.00000
     39      14.5572      0.00000
     40      14.9800      0.00000
     41      15.2429      0.00000
     42      15.4712      0.00000
     43      16.0806      0.00000
     44      16.4495      0.00000
     45      16.7500      0.00000
     46      17.0969      0.00000
     47      17.2331      0.00000
     48      18.1669      0.00000

 k-point   3 :       0.3333    0.3333    0.0000
  band No.  band energies     occupation 
      1     -14.0626      2.00000
      2     -13.5302      2.00000
      3     -13.4432      2.00000
      4     -13.4156      2.00000
      5     -13.3319      2.00000
      6     -13.2616      2.00000
      7     -13.0497      2.00000
      8     -12.9579      2.00000
      9      -1.0127      2.00000
     10      -0.9910      2.00000
     11      -0.9070      2.00000
     12      -0.8704      2.00000
     13      -0.6903      2.00000
     14      -0.6434      2.00000
     15      -0.5301      2.00000
     16       0.3549      2.00000
     17       0.4103      2.00000
     18       0.7940      2.00000
     19       0.8441      2.00000
     20       0.8780      2.00000
     21       0.9345      2.00000
     22       0.9703      2.00000
     23       1.0503      2.00000
     24       1.0840      2.00000
     25       1.2389      2.00000
     26       1.2782      2.00000
     27       1.5155      2.00000
     28       1.5683      2.00000
     29       1.7138      2.00000
     30       1.8288      2.00000
     31       2.1740      2.00000
     32       2.3986      2.00000
     33      11.0448      0.00000
     34      13.1580      0.00000
     35      13.3562      0.00000
     36      13.5635      0.00000
     37      13.6163      0.00000
     38      14.2476      0.00000
     39      14.8232      0.00000
     40      15.3302      0.00000
     41      15.5109      0.00000
     42      16.0035      0.00000
     43      16.2839      0.00000
     44      16.5344      0.00000
     45      17.6154      0.00000
     46      18.1032      0.00000
     47      19.1696      0.00000
     48      19.7983      0.00000

 k-point   4 :      -0.3333    0.3333    0.0000
  band No.  band energies     occupation 
      1     -13.8789      2.00000
      2     -13.7852      2.00000
      3     -13.7041      2.00000
      4     -13.4226      2.00000
      5     -13.2934      2.00000
      6     -13.1758      2.00000
      7     -13.0430      2.00000
      8     -13.0129      2.00000
      9      -0.7363      2.00000
     10      -0.7220      2.00000
     11      -0.7058      2.00000
     12      -0.6589      2.00000
     13      -0.4169      2.00000
     14      -0.3125      2.00000
     15      -0.2721      2.00000
     16      -0.2449      2.00000
     17       0.1370      2.00000
     18       0.2290      2.00000
     19       0.2450      2.00000
     20       0.6728      2.00000
     21       0.7180      2.00000
     22       1.1116      2.00000
     23       1.1465      2.00000
     24       1.2815      2.00000
     25       1.3387      2.00000
     26       1.3823      2.00000
     27       1.4522      2.00000
     28       1.4964      2.00000
     29       1.5626      2.00000
     30       1.7334      2.00000
     31       1.8288      2.00000
     32       2.0377      2.00000
     33      11.9775      0.00000
     34      12.3540      0.00000
     35      12.9198      0.00000
     36      14.3488      0.00000
     37      14.5632      0.00000
     38      15.1431      0.00000
     39      15.2246      0.00000
     40      15.5517      0.00000
     41      15.9108      0.00000
     42      16.1859      0.00000
     43      16.5162      0.00000
     44      17.1922      0.00000
     45      17.4506      0.00000
     46      18.1367      0.00000
     47      19.2701      0.00000
     48      20.1534      0.00000


----------------------------------------- Iteration    1(   3)  ---------------------------------------


     EDDAV:  cpu time    0.65: real time    0.65
 BZINTS: Fermi energy:  2.002553; 64.000000 electrons
         Band energy:-199.057060;  BLOECHL correction:  0.000000
       DOS:  cpu time    0.00: real time    0.00
    --------------------------------------------
      LOOP:  cpu time    0.65: real time    0.65

 eigenvalue-minimisations  :   464
 total energy-change (2. order) :-0.1484296E+02  (-0.1478568E+02)
 number of electron      64.0000000 magnetization 
 augmentation part       64.0000000 magnetization 

 Free energy of the ion-electron system (eV)
  ---------------------------------------------------
  alpha Z        PSCENC =        33.29328806
  Ewald energy   TEWEN  =     -2865.57248191
  -1/2 Hartree   DENC   =      -960.80578770
  -exchange  EXHF       =         0.00000000
  -V(xc)+E(xc)   XCENC  =       166.19994294
  PAW double counting   =      2056.17291390    -1984.97938003
  entropy T*S    EENTRO =         0.00000000
  eigenvalues    EBANDS =      -199.05705955
  atomic energy  EATOM  =      3636.14291937
  ---------------------------------------------------
  free energy    TOTEN  =      -118.60564493 eV

  energy without entropy =     -118.60564493  energy(sigma->0) =     -118.60564493


--------------------------------------------------------------------------------------------------------


 E-fermi :   2.0026     XC(G=0): -11.4131     alpha+bet :-14.9973


 k-point   1 :       0.0000    0.0000    0.0000
  band No.  band energies     occupation 
      1     -14.6692      2.00000
      2     -13.6244      2.00000
      3     -13.6242      2.00000
      4     -13.6218      2.00000
      5     -13.6210      2.00000
      6     -13.4220      2.00000
      7     -13.4215      2.00000
      8     -13.4201      2.00000
      9      -1.6646      2.00000
     10      -1.6643      2.00000
     11      -1.6642      2.00000
     12      -1.6630      2.00000
     13      -1.2363      2.00000
     14      -1.2356      2.00000
     15      -1.2340      2.00000
     16       0.8741      2.00000
     17       0.8742      2.00000
     18       0.8746      2.00000
     19       0.8753      2.00000
     20       0.8757      2.00000
     21       0.8796      2.00000
     22       1.3847      2.00000
     23       1.3850      2.00000
     24       1.3853      2.00000
     25       1.3855      2.00000
     26       1.3864      2.00000
     27       1.3874      2.00000
     28       1.3898      2.00000
     29       1.3965      2.00000
     30       1.8962      2.00000
     31       1.8983      2.00000
     32       1.8995      2.00000
     33       8.5855      0.00000
     34      12.0723      0.00000
     35      12.0750      0.00000
     36      12.0793      0.00000
     37      12.1125      0.00000
     38      13.5670      0.00000
     39      13.6077      0.00000
     40      13.6473      0.00000
     41      14.3405      0.00000
     42      14.3470      0.00000
     43      14.3799      0.00000
     44      15.5337      0.00000
     45      15.5428      0.00000
     46      15.6436      0.00000
     47      15.8195      0.00000
     48      16.1081      0.00000

 k-point   2 :       0.3333    0.0000    0.0000
  band No.  band energies     occupation 
      1     -14.4332      2.00000
      2     -13.9148      2.00000
      3     -13.5771      2.00000
      4     -13.5765      2.00000
      5     -13.5755      2.00000
      6     -13.4768      2.00000
      7     -13.4755      2.00000
      8     -13.4747      2.00000
      9      -1.2919      2.00000
     10      -1.2914      2.00000
     11      -1.2908      2.00000
     12      -0.9841      2.00000
     13      -0.9838      2.00000
     14      -0.9834      2.00000
     15      -0.8928      2.00000
     16       0.4917      2.00000
     17       0.4921      2.00000
     18       0.4925      2.00000
     19       0.8327      2.00000
     20       0.8417      2.00000
     21       0.8421      2.00000
     22       0.8424      2.00000
     23       0.9975      2.00000
     24       0.9979      2.00000
     25       0.9986      2.00000
     26       1.2529      2.00000
     27       1.2536      2.00000
     28       1.2540      2.00000
     29       1.5055      2.00000
     30       1.5101      2.00000
     31       1.7631      2.00000
     32       1.7657      2.00000
     33       9.7612      0.00000
     34      11.4920      0.00000
     35      12.9129      0.00000
     36      12.9426      0.00000
     37      12.9488      0.00000
     38      13.9572      0.00000
     39      13.9827      0.00000
     40      13.9991      0.00000
     41      14.5483      0.00000
     42      14.5987      0.00000
     43      14.6287      0.00000
     44      15.3817      0.00000
     45      15.4143      0.00000
     46      15.6838      0.00000
     47      15.9596      0.00000
     48      16.7079      0.00000

 k-point   3 :       0.3333    0.3333    0.0000
  band No.  band energies     occupation 
      1     -14.3606      2.00000
      2     -13.7355      2.00000
      3     -13.6650      2.00000
      4     -13.6647      2.00000
      5     -13.6641      2.00000
      6     -13.6635      2.00000
      7     -13.3894      2.00000
      8     -13.3889      2.00000
      9      -1.0707      2.00000
     10      -1.0705      2.00000
     11      -1.0694      2.00000
     12      -1.0690      2.00000
     13      -0.7998      2.00000
     14      -0.7994      2.00000
     15      -0.7110      2.00000
     16       0.2337      2.00000
     17       0.2345      2.00000
     18       0.6493      2.00000
     19       0.6501      2.00000
     20       0.7638      2.00000
     21       0.7642      2.00000
     22       0.7644      2.00000
     23       0.7657      2.00000
     24       0.7673      2.00000
     25       1.1041      2.00000
     26       1.1046      2.00000
     27       1.3891      2.00000
     28       1.3895      2.00000
     29       1.3911      2.00000
     30       1.3928      2.00000
     31       1.6126      2.00000
     32       1.6143      2.00000
     33      10.1255      0.00000
     34      12.7055      0.00000
     35      12.7222      0.00000
     36      12.7352      0.00000
     37      12.7776      0.00000
     38      12.8356      0.00000
     39      14.4864      0.00000
     40      14.5013      0.00000
     41      14.5648      0.00000
     42      15.5149      0.00000
     43      15.5449      0.00000
     44      15.5574      0.00000
     45      15.6048      0.00000
     46      15.7946      0.00000
     47      15.9570      0.00000
     48      16.9809      0.00000

 k-point   4 :      -0.3333    0.3333    0.0000
  band No.  band energies     occupation 
      1     -14.1049      2.00000
      2     -13.9491      2.00000
      3     -13.9483      2.00000
      4     -13.6163      2.00000
      5     -13.6153      2.00000
      6     -13.4432      2.00000
      7     -13.4421      2.00000
      8     -13.4414      2.00000
      9      -0.8186      2.00000
     10      -0.8182      2.00000
     11      -0.7872      2.00000
     12      -0.7868      2.00000
     13      -0.5286      2.00000
     14      -0.4229      2.00000
     15      -0.4224      2.00000
     16      -0.3991      2.00000
     17      -0.0512      2.00000
     18       0.0647      2.00000
     19       0.0650      2.00000
     20       0.5392      2.00000
     21       0.5397      2.00000
     22       0.9454      2.00000
     23       0.9459      2.00000
     24       1.1294      2.00000
     25       1.1337      2.00000
     26       1.1347      2.00000
     27       1.2268      2.00000
     28       1.2646      2.00000
     29       1.2656      2.00000
     30       1.3603      2.00000
     31       1.3608      2.00000
     32       1.6490      2.00000
     33      11.1387      0.00000
     34      11.7711      0.00000
     35      11.7974      0.00000
     36      13.4506      0.00000
     37      13.5639      0.00000
     38      14.1799      0.00000
     39      14.3384      0.00000
     40      14.3640      0.00000
     41      15.0315      0.00000
     42      15.0766      0.00000
     43      15.4098      0.00000
     44      15.6280      0.00000
     45      15.6981      0.00000
     46      15.7374      0.00000
     47      16.2253      0.00000
     48      16.9681      0.00000


----------------------------------------- Iteration    1(   4)  ---------------------------------------


     EDDAV:  cpu time    0.66: real time    0.66
 BZINTS: Fermi energy:  1.952304; 64.000000 electrons
         Band energy:-199.176499;  BLOECHL correction:  0.000000
       DOS:  cpu time    0.00: real time    0.00
    --------------------------------------------
      LOOP:  cpu time    0.66: real time    0.68

 eigenvalue-minimisations  :   480
 total energy-change (2. order) :-0.1194390E+00  (-0.1193643E+00)
 number of electron      64.0000000 magnetization 
 augmentation part       64.0000000 magnetization 

 Free energy of the ion-electron system (eV)
  ---------------------------------------------------
  alpha Z        PSCENC =        33.29328806
  Ewald energy   TEWEN  =     -2865.57248191
  -1/2 Hartree   DENC   =      -960.80578770
  -exchange  EXHF       =         0.00000000
  -V(xc)+E(xc)   XCENC  =       166.19994294
  PAW double counting   =      2056.17291390    -1984.97938003
  entropy T*S    EENTRO =         0.00000000
  eigenvalues    EBANDS =      -199.17649858
  atomic energy  EATOM  =      3636.14291937
  ---------------------------------------------------
  free energy    TOTEN  =      -118.72508396 eV

  energy without entropy =     -118.72508396  energy(sigma->0) =     -118.72508396


--------------------------------------------------------------------------------------------------------


 E-fermi :   1.9523     XC(G=0): -11.4131     alpha+bet :-14.9973


 k-point   1 :       0.0000    0.0000    0.0000
  band No.  band energies     occupation 
      1     -14.6712      2.00000
      2     -13.6259      2.00000
      3     -13.6259      2.00000
      4     -13.6259      2.00000
      5     -13.6259      2.00000
      6     -13.4240      2.00000
      7     -13.4240      2.00000
      8     -13.4240      2.00000
      9      -1.6653      2.00000
     10      -1.6653      2.00000
     11      -1.6653      2.00000
     12      -1.6653      2.00000
     13      -1.2371      2.00000
     14      -1.2371      2.00000
     15      -1.2370      2.00000
     16       0.8733      2.00000
     17       0.8733      2.00000
     18       0.8733      2.00000
     19       0.8733      2.00000
     20       0.8733      2.00000
     21       0.8733      2.00000
     22       1.3842      2.00000
     23       1.3842      2.00000
     24       1.3842      2.00000
     25       1.3842      2.00000
     26       1.3842      2.00000
     27       1.3842      2.00000
     28       1.3842      2.00000
     29       1.3843      2.00000
     30       1.8949      2.00000
     31       1.8949      2.00000
     32       1.8949      2.00000
     33       8.5752      0.00000
     34      12.0668      0.00000
     35      12.0668      0.00000
     36      12.0670      0.00000
     37      12.0674      0.00000
     38      13.5552      0.00000
     39      13.5563      0.00000
     40      13.5588      0.00000
     41      14.3355      0.00000
     42      14.3357      0.00000
     43      14.3375      0.00000
     44      15.5282      0.00000
     45      15.5282      0.00000
     46      15.5474      0.00000
     47      15.6189      0.00000
     48      16.0893      0.00000

 k-point   2 :       0.3333    0.0000    0.0000
  band No.  band energies     occupation 
      1     -14.4344      2.00000
      2     -13.9161      2.00000
      3     -13.5785      2.00000
      4     -13.5785      2.00000
      5     -13.5784      2.00000
      6     -13.4784      2.00000
      7     -13.4784      2.00000
      8     -13.4784      2.00000
      9      -1.2926      2.00000
     10      -1.2926      2.00000
     11      -1.2925      2.00000
     12      -0.9849      2.00000
     13      -0.9849      2.00000
     14      -0.9849      2.00000
     15      -0.8936      2.00000
     16       0.4907      2.00000
     17       0.4907      2.00000
     18       0.4907      2.00000
     19       0.8301      2.00000
     20       0.8405      2.00000
     21       0.8405      2.00000
     22       0.8406      2.00000
     23       0.9964      2.00000
     24       0.9964      2.00000
     25       0.9964      2.00000
     26       1.2520      2.00000
     27       1.2520      2.00000
     28       1.2520      2.00000
     29       1.5043      2.00000
     30       1.5044      2.00000
     31       1.7617      2.00000
     32       1.7617      2.00000
     33       9.7248      0.00000
     34      11.4747      0.00000
     35      12.9007      0.00000
     36      12.9009      0.00000
     37      12.9013      0.00000
     38      13.9421      0.00000
     39      13.9430      0.00000
     40      13.9439      0.00000
     41      14.5303      0.00000
     42      14.5311      0.00000
     43      14.5352      0.00000
     44      15.3571      0.00000
     45      15.3592      0.00000
     46      15.4062      0.00000
     47      15.8351      0.00000
     48      16.6340      0.00000

 k-point   3 :       0.3333    0.3333    0.0000
  band No.  band energies     occupation 
      1     -14.3630      2.00000
      2     -13.7370      2.00000
      3     -13.6666      2.00000
      4     -13.6666      2.00000
      5     -13.6665      2.00000
      6     -13.6665      2.00000
      7     -13.3917      2.00000
      8     -13.3917      2.00000
      9      -1.0713      2.00000
     10      -1.0713      2.00000
     11      -1.0713      2.00000
     12      -1.0713      2.00000
     13      -0.8013      2.00000
     14      -0.8013      2.00000
     15      -0.7126      2.00000
     16       0.2326      2.00000
     17       0.2326      2.00000
     18       0.6478      2.00000
     19       0.6478      2.00000
     20       0.7628      2.00000
     21       0.7628      2.00000
     22       0.7628      2.00000
     23       0.7628      2.00000
     24       0.7652      2.00000
     25       1.1029      2.00000
     26       1.1029      2.00000
     27       1.3882      2.00000
     28       1.3882      2.00000
     29       1.3882      2.00000
     30       1.3883      2.00000
     31       1.6106      2.00000
     32       1.6106      2.00000
     33      10.1010      0.00000
     34      12.6929      0.00000
     35      12.6930      0.00000
     36      12.6934      0.00000
     37      12.6973      0.00000
     38      12.7760      0.00000
     39      14.4675      0.00000
     40      14.4725      0.00000
     41      14.4741      0.00000
     42      15.4971      0.00000
     43      15.4993      0.00000
     44      15.5214      0.00000
     45      15.5256      0.00000
     46      15.5534      0.00000
     47      15.6401      0.00000
     48      15.7263      0.00000

 k-point   4 :      -0.3333    0.3333    0.0000
  band No.  band energies     occupation 
      1     -14.1071      2.00000
      2     -13.9501      2.00000
      3     -13.9501      2.00000
      4     -13.6181      2.00000
      5     -13.6181      2.00000
      6     -13.4449      2.00000
      7     -13.4446      2.00000
      8     -13.4446      2.00000
      9      -0.8196      2.00000
     10      -0.8196      2.00000
     11      -0.7881      2.00000
     12      -0.7881      2.00000
     13      -0.5298      2.00000
     14      -0.4239      2.00000
     15      -0.4239      2.00000
     16      -0.4004      2.00000
     17      -0.0529      2.00000
     18       0.0634      2.00000
     19       0.0634      2.00000
     20       0.5378      2.00000
     21       0.5378      2.00000
     22       0.9440      2.00000
     23       0.9440      2.00000
     24       1.1278      2.00000
     25       1.1320      2.00000
     26       1.1320      2.00000
     27       1.2248      2.00000
     28       1.2627      2.00000
     29       1.2627      2.00000
     30       1.3582      2.00000
     31       1.3582      2.00000
     32       1.6465      2.00000
     33      11.1202      0.00000
     34      11.7560      0.00000
     35      11.7562      0.00000
     36      13.3885      0.00000
     37      13.3921      0.00000
     38      14.1180      0.00000
     39      14.2661      0.00000
     40      14.2669      0.00000
     41      15.0092      0.00000
     42      15.0121      0.00000
     43      15.2576      0.00000
     44      15.2952      0.00000
     45      15.5829      0.00000
     46      15.6167      0.00000
     47      15.6467      0.00000
     48      16.4961      0.00000


----------------------------------------- Iteration    1(   5)  ---------------------------------------


     EDDAV:  cpu time    0.64: real time    0.64
 BZINTS: Fermi energy:  1.950972; 64.000000 electrons
         Band energy:-199.178291;  BLOECHL correction:  0.000000
       DOS:  cpu time    0.00: real time    0.00
    CHARGE:  cpu time    0.07: real time    0.08
    MIXING:  cpu time    0.00: real time    0.02
    --------------------------------------------
      LOOP:  cpu time    0.72: real time    0.75

 eigenvalue-minimisations  :   456
 total energy-change (2. order) :-0.1792672E-02  (-0.1792598E-02)
 number of electron      63.9999895 magnetization 
 augmentation part        6.5282104 magnetization 

 Broyden mixing:
  rms(total) = 0.19412E+01    rms(broyden)= 0.19404E+01
  rms(prec ) = 0.41759E+01
  weight for this iteration     100.00

 Free energy of the ion-electron system (eV)
  ---------------------------------------------------
  alpha Z        PSCENC =        33.29328806
  Ewald energy   TEWEN  =     -2865.57248191
  -1/2 Hartree   DENC   =      -960.80578770
  -exchange  EXHF       =         0.00000000
  -V(xc)+E(xc)   XCENC  =       166.19994294
  PAW double counting   =      2056.17291390    -1984.97938003
  entropy T*S    EENTRO =         0.00000000
  eigenvalues    EBANDS =      -199.17829126
  atomic energy  EATOM  =      3636.14291937
  ---------------------------------------------------
  free energy    TOTEN  =      -118.72687664 eV

  energy without entropy =     -118.72687664  energy(sigma->0) =     -118.72687664


--------------------------------------------------------------------------------------------------------


 E-fermi :   1.9510     XC(G=0): -11.4131     alpha+bet :-14.9973


 k-point   1 :       0.0000    0.0000    0.0000
  band No.  band energies     occupation 
      1     -14.6713      2.00000
      2     -13.6260      2.00000
      3     -13.6260      2.00000
      4     -13.6260      2.00000
      5     -13.6260      2.00000
      6     -13.4240      2.00000
      7     -13.4240      2.00000
      8     -13.4240      2.00000
      9      -1.6654      2.00000
     10      -1.6654      2.00000
     11      -1.6654      2.00000
     12      -1.6654      2.00000
     13      -1.2371      2.00000
     14      -1.2371      2.00000
     15      -1.2371      2.00000
     16       0.8733      2.00000
     17       0.8733      2.00000
     18       0.8733      2.00000
     19       0.8733      2.00000
     20       0.8733      2.00000
     21       0.8733      2.00000
     22       1.3842      2.00000
     23       1.3842      2.00000
     24       1.3842      2.00000
     25       1.3842      2.00000
     26       1.3842      2.00000
     27       1.3842      2.00000
     28       1.3842      2.00000
     29       1.3842      2.00000
     30       1.8949      2.00000
     31       1.8949      2.00000
     32       1.8949      2.00000
     33       8.5752      0.00000
     34      12.0668      0.00000
     35      12.0668      0.00000
     36      12.0668      0.00000
     37      12.0668      0.00000
     38      13.5551      0.00000
     39      13.5552      0.00000
     40      13.5554      0.00000
     41      14.3355      0.00000
     42      14.3355      0.00000
     43      14.3356      0.00000
     44      15.5281      0.00000
     45      15.5281      0.00000
     46      15.5323      0.00000
     47      15.5557      0.00000
     48      16.0892      0.00000

 k-point   2 :       0.3333    0.0000    0.0000
  band No.  band energies     occupation 
      1     -14.4344      2.00000
      2     -13.9161      2.00000
      3     -13.5785      2.00000
      4     -13.5785      2.00000
      5     -13.5785      2.00000
      6     -13.4784      2.00000
      7     -13.4784      2.00000
      8     -13.4784      2.00000
      9      -1.2926      2.00000
     10      -1.2926      2.00000
     11      -1.2926      2.00000
     12      -0.9849      2.00000
     13      -0.9849      2.00000
     14      -0.9849      2.00000
     15      -0.8936      2.00000
     16       0.4907      2.00000
     17       0.4907      2.00000
     18       0.4907      2.00000
     19       0.8300      2.00000
     20       0.8405      2.00000
     21       0.8405      2.00000
     22       0.8405      2.00000
     23       0.9964      2.00000
     24       0.9964      2.00000
     25       0.9964      2.00000
     26       1.2520      2.00000
     27       1.2520      2.00000
     28       1.2520      2.00000
     29       1.5043      2.00000
     30       1.5043      2.00000
     31       1.7617      2.00000
     32       1.7617      2.00000
     33       9.7247      0.00000
     34      11.4746      0.00000
     35      12.9006      0.00000
     36      12.9006      0.00000
     37      12.9006      0.00000
     38      13.9420      0.00000
     39      13.9421      0.00000
     40      13.9421      0.00000
     41      14.5302      0.00000
     42      14.5303      0.00000
     43      14.5304      0.00000
     44      15.3569      0.00000
     45      15.3571      0.00000
     46      15.3612      0.00000
     47      15.8268      0.00000
     48      16.6315      0.00000

 k-point   3 :       0.3333    0.3333    0.0000
  band No.  band energies     occupation 
      1     -14.3630      2.00000
      2     -13.7370      2.00000
      3     -13.6666      2.00000
      4     -13.6666      2.00000
      5     -13.6666      2.00000
      6     -13.6666      2.00000
      7     -13.3918      2.00000
      8     -13.3918      2.00000
      9      -1.0713      2.00000
     10      -1.0713      2.00000
     11      -1.0713      2.00000
     12      -1.0713      2.00000
     13      -0.8013      2.00000
     14      -0.8013      2.00000
     15      -0.7126      2.00000
     16       0.2326      2.00000
     17       0.2326      2.00000
     18       0.6478      2.00000
     19       0.6478      2.00000
     20       0.7627      2.00000
     21       0.7627      2.00000
     22       0.7627      2.00000
     23       0.7627      2.00000
     24       0.7652      2.00000
     25       1.1029      2.00000
     26       1.1029      2.00000
     27       1.3882      2.00000
     28       1.3882      2.00000
     29       1.3882      2.00000
     30       1.3882      2.00000
     31       1.6106      2.00000
     32       1.6106      2.00000
     33      10.1009      0.00000
     34      12.6928      0.00000
     35      12.6928      0.00000
     36      12.6928      0.00000
     37      12.6931      0.00000
     38      12.7748      0.00000
     39      14.4660      0.00000
     40      14.4717      0.00000
     41      14.4720      0.00000
     42      15.4962      0.00000
     43      15.4963      0.00000
     44      15.5002      0.00000
     45      15.5202      0.00000
     46      15.5301      0.00000
     47      15.6184      0.00000
     48      15.6956      0.00000

 k-point   4 :      -0.3333    0.3333    0.0000
  band No.  band energies     occupation 
      1     -14.1071      2.00000
      2     -13.9501      2.00000
      3     -13.9501      2.00000
      4     -13.6181      2.00000
      5     -13.6181      2.00000
      6     -13.4449      2.00000
      7     -13.4446      2.00000
      8     -13.4446      2.00000
      9      -0.8196      2.00000
     10      -0.8196      2.00000
     11      -0.7881      2.00000
     12      -0.7881      2.00000
     13      -0.5298      2.00000
     14      -0.4239      2.00000
     15      -0.4239      2.00000
     16      -0.4004      2.00000
     17      -0.0529      2.00000
     18       0.0634      2.00000
     19       0.0634      2.00000
     20       0.5378      2.00000
     21       0.5378      2.00000
     22       0.9440      2.00000
     23       0.9440      2.00000
     24       1.1278      2.00000
     25       1.1319      2.00000
     26       1.1319      2.00000
     27       1.2248      2.00000
     28       1.2627      2.00000
     29       1.2627      2.00000
     30       1.3581      2.00000
     31       1.3581      2.00000
     32       1.6465      2.00000
     33      11.1200      0.00000
     34      11.7560      0.00000
     35      11.7560      0.00000
     36      13.3877      0.00000
     37      13.3878      0.00000
     38      14.1146      0.00000
     39      14.2612      0.00000
     40      14.2616      0.00000
     41      15.0087      0.00000
     42      15.0089      0.00000
     43      15.2454      0.00000
     44      15.2506      0.00000
     45      15.5703      0.00000
     46      15.6127      0.00000
     47      15.6145      0.00000
     48      16.3492      0.00000


----------------------------------------- Iteration    1(   6)  ---------------------------------------


    POTLOK:  cpu time    0.02: real time    0.02
    SETDIJ:  cpu time    0.01: real time    0.01
     EDDAV:  cpu time    0.63: real time    0.63
 BZINTS: Fermi energy:  4.645318; 64.000000 electrons
         Band energy: -53.804082;  BLOECHL correction:  0.000000
       DOS:  cpu time    0.00: real time    0.00
    CHARGE:  cpu time    0.08: real time    0.08
    MIXING:  cpu time    0.00: real time    0.01
    --------------------------------------------
      LOOP:  cpu time    0.74: real time    0.77

 eigenvalue-minimisations  :   448
 total energy-change (2. order) : 0.1178071E+02  (-0.4109953E+01)
 number of electron      63.9999913 magnetization 
 augmentation part        5.4544993 magnetization 

 Broyden mixing:
  rms(total) = 0.59944E+00    rms(broyden)= 0.59772E+00
  rms(prec ) = 0.92642E+00
  weight for this iteration     100.00

 eigenvalues of (default mixing * dielectric matrix)
  average eigenvalue GAMMA=   0.8604
  0.8604

 Free energy of the ion-electron system (eV)
  ---------------------------------------------------
  alpha Z        PSCENC =        33.29328806
  Ewald energy   TEWEN  =     -2865.57248191
  -1/2 Hartree   DENC   =     -1102.06261903
  -exchange  EXHF       =         0.00000000
  -V(xc)+E(xc)   XCENC  =       176.87377612
  PAW double counting   =      2427.27793794    -2359.09490945
  entropy T*S    EENTRO =         0.00000000
  eigenvalues    EBANDS =       -53.80408195
  atomic energy  EATOM  =      3636.14291937
  ---------------------------------------------------
  free energy    TOTEN  =      -106.94617085 eV

  energy without entropy =     -106.94617085  energy(sigma->0) =     -106.94617085


--------------------------------------------------------------------------------------------------------


 E-fermi :   4.6453     XC(G=0): -11.2132     alpha+bet :-14.9973


 k-point   1 :       0.0000    0.0000    0.0000
  band No.  band energies     occupation 
      1     -12.4311      2.00000
      2     -11.0861      2.00000
      3     -11.0861      2.00000
      4     -11.0861      2.00000
      5     -11.0861      2.00000
      6     -10.8111      2.00000
      7     -10.8111      2.00000
      8     -10.8111      2.00000
      9      -0.0955      2.00000
     10      -0.0955      2.00000
     11      -0.0954      2.00000
     12      -0.0953      2.00000
     13       0.4405      2.00000
     14       0.4406      2.00000
     15       0.4449      2.00000
     16       3.2314      2.00000
     17       3.2314      2.00000
     18       3.2314      2.00000
     19       3.2316      2.00000
     20       3.2316      2.00000
     21       3.2316      2.00000
     22       3.9421      2.00000
     23       3.9421      2.00000
     24       3.9421      2.00000
     25       3.9421      2.00000
     26       3.9421      2.00000
     27       3.9424      2.00000
     28       3.9424      2.00000
     29       3.9424      2.00000
     30       4.6081      2.00000
     31       4.6081      2.00000
     32       4.6084      2.00000
     33       9.3299      0.00000
     34      12.3699      0.00000
     35      12.3699      0.00000
     36      12.3699      0.00000
     37      12.3699      0.00000
     38      13.5029      0.00000
     39      13.5030      0.00000
     40      13.5031      0.00000
     41      14.3893      0.00000
     42      14.3893      0.00000
     43      14.3893      0.00000
     44      17.1235      0.00000
     45      17.1237      0.00000
     46      17.1261      0.00000
     47      17.1382      0.00000
     48      17.5833      0.00000

 k-point   2 :       0.3333    0.0000    0.0000
  band No.  band energies     occupation 
      1     -12.1359      2.00000
      2     -11.4725      2.00000
      3     -11.0239      2.00000
      4     -11.0239      2.00000
      5     -11.0239      2.00000
      6     -10.8876      2.00000
      7     -10.8866      2.00000
      8     -10.8866      2.00000
      9       0.3620      2.00000
     10       0.3621      2.00000
     11       0.3622      2.00000
     12       0.7566      2.00000
     13       0.7573      2.00000
     14       0.7574      2.00000
     15       0.8773      2.00000
     16       2.6674      2.00000
     17       2.6674      2.00000
     18       2.6675      2.00000
     19       3.0827      2.00000
     20       3.1395      2.00000
     21       3.1396      2.00000
     22       3.1396      2.00000
     23       3.3972      2.00000
     24       3.3974      2.00000
     25       3.3974      2.00000
     26       3.7519      2.00000
     27       3.7521      2.00000
     28       3.7521      2.00000
     29       4.0970      2.00000
     30       4.0972      2.00000
     31       4.4308      2.00000
     32       4.4311      2.00000
     33      10.7347      0.00000
     34      12.1814      0.00000
     35      13.4699      0.00000
     36      13.4700      0.00000
     37      13.4700      0.00000
     38      14.1980      0.00000
     39      14.1980      0.00000
     40      14.1993      0.00000
     41      15.2526      0.00000
     42      15.2675      0.00000
     43      15.2679      0.00000
     44      16.7052      0.00000
     45      16.7052      0.00000
     46      16.7060      0.00000
     47      16.7925      0.00000
     48      17.3952      0.00000

 k-point   3 :       0.3333    0.3333    0.0000
  band No.  band energies     occupation 
      1     -12.0461      2.00000
      2     -11.2353      2.00000
      3     -11.1425      2.00000
      4     -11.1425      2.00000
      5     -11.1425      2.00000
      6     -11.1424      2.00000
      7     -10.7694      2.00000
      8     -10.7688      2.00000
      9       0.6460      2.00000
     10       0.6461      2.00000
     11       0.6462      2.00000
     12       0.6487      2.00000
     13       0.9775      2.00000
     14       0.9993      2.00000
     15       1.1171      2.00000
     16       2.3160      2.00000
     17       2.3160      2.00000
     18       2.9017      2.00000
     19       2.9050      2.00000
     20       3.0059      2.00000
     21       3.0232      2.00000
     22       3.0232      2.00000
     23       3.0233      2.00000
     24       3.0251      2.00000
     25       3.5299      2.00000
     26       3.5301      2.00000
     27       3.9438      2.00000
     28       3.9438      2.00000
     29       3.9440      2.00000
     30       3.9440      2.00000
     31       4.2115      2.00000
     32       4.2117      2.00000
     33      11.2165      0.00000
     34      13.4760      0.00000
     35      13.4760      0.00000
     36      13.4761      0.00000
     37      13.4773      0.00000
     38      13.8163      0.00000
     39      14.4157      0.00000
     40      14.9792      0.00000
     41      14.9793      0.00000
     42      15.8328      0.00000
     43      15.8453      0.00000
     44      16.5903      0.00000
     45      16.5903      0.00000
     46      16.5908      0.00000
     47      16.6573      0.00000
     48      16.9561      0.00000

 k-point   4 :      -0.3333    0.3333    0.0000
  band No.  band energies     occupation 
      1     -11.7205      2.00000
      2     -11.5171      2.00000
      3     -11.5171      2.00000
      4     -11.0776      2.00000
      5     -11.0776      2.00000
      6     -10.8422      2.00000
      7     -10.8422      2.00000
      8     -10.8420      2.00000
      9       0.9475      2.00000
     10       0.9477      2.00000
     11       1.0089      2.00000
     12       1.0089      2.00000
     13       1.3209      2.00000
     14       1.4777      2.00000
     15       1.4777      2.00000
     16       1.4779      2.00000
     17       1.9483      2.00000
     18       2.0868      2.00000
     19       2.0868      2.00000
     20       2.7145      2.00000
     21       2.7145      2.00000
     22       3.3149      2.00000
     23       3.3151      2.00000
     24       3.5713      2.00000
     25       3.5713      2.00000
     26       3.5879      2.00000
     27       3.6499      2.00000
     28       3.7245      2.00000
     29       3.7245      2.00000
     30       3.8773      2.00000
     31       3.8773      2.00000
     32       4.2879      2.00000
     33      12.2522      0.00000
     34      12.8446      0.00000
     35      12.8446      0.00000
     36      14.5294      0.00000
     37      14.5295      0.00000
     38      14.7502      0.00000
     39      15.0360      0.00000
     40      15.0360      0.00000
     41      15.5025      0.00000
     42      15.5026      0.00000
     43      15.9585      0.00000
     44      15.9592      0.00000
     45      16.4359      0.00000
     46      16.4386      0.00000
     47      16.6792      0.00000
     48      16.7122      0.00000


----------------------------------------- Iteration    1(   7)  ---------------------------------------


    POTLOK:  cpu time    0.02: real time    0.02
    SETDIJ:  cpu time    0.01: real time    0.01
     EDDAV:  cpu time    0.60: real time    0.60
 BZINTS: Fermi energy:  4.638030; 64.000000 electrons
         Band energy: -53.603582;  BLOECHL correction:  0.000000
       DOS:  cpu time    0.00: real time    0.00
    CHARGE:  cpu time    0.08: real time    0.08
    MIXING:  cpu time    0.00: real time    0.00
    --------------------------------------------
      LOOP:  cpu time    0.71: real time    0.71

 eigenvalue-minimisations  :   416
 total energy-change (2. order) : 0.2421282E+00  (-0.9831982E-01)
 number of electron      63.9999913 magnetization 
 augmentation part        5.4547350 magnetization 

 Broyden mixing:
  rms(total) = 0.36726E+00    rms(broyden)= 0.36721E+00
  rms(prec ) = 0.58137E+00
  weight for this iteration     100.00

 eigenvalues of (default mixing * dielectric matrix)
  average eigenvalue GAMMA=   1.8111
  0.9833  2.6389

 Free energy of the ion-electron system (eV)
  ---------------------------------------------------
  alpha Z        PSCENC =        33.29328806
  Ewald energy   TEWEN  =     -2865.57248191
  -1/2 Hartree   DENC   =     -1102.72965567
  -exchange  EXHF       =         0.00000000
  -V(xc)+E(xc)   XCENC  =       177.13450261
  PAW double counting   =      2467.25334485    -2398.62237769
  entropy T*S    EENTRO =         0.00000000
  eigenvalues    EBANDS =       -53.60358230
  atomic energy  EATOM  =      3636.14291937
  ---------------------------------------------------
  free energy    TOTEN  =      -106.70404269 eV

  energy without entropy =     -106.70404269  energy(sigma->0) =     -106.70404269


--------------------------------------------------------------------------------------------------------


 E-fermi :   4.6380     XC(G=0): -11.1881     alpha+bet :-14.9973


 k-point   1 :       0.0000    0.0000    0.0000
  band No.  band energies     occupation 
      1     -12.4177      2.00000
      2     -11.0768      2.00000
      3     -11.0768      2.00000
      4     -11.0768      2.00000
      5     -11.0768      2.00000
      6     -10.8031      2.00000
      7     -10.8031      2.00000
      8     -10.8031      2.00000
      9      -0.0829      2.00000
     10      -0.0829      2.00000
     11      -0.0829      2.00000
     12      -0.0829      2.00000
     13       0.4572      2.00000
     14       0.4572      2.00000
     15       0.4572      2.00000
     16       3.2305      2.00000
     17       3.2305      2.00000
     18       3.2305      2.00000
     19       3.2305      2.00000
     20       3.2305      2.00000
     21       3.2305      2.00000
     22       3.9354      2.00000
     23       3.9354      2.00000
     24       3.9354      2.00000
     25       3.9354      2.00000
     26       3.9354      2.00000
     27       3.9354      2.00000
     28       3.9354      2.00000
     29       3.9354      2.00000
     30       4.5967      2.00000
     31       4.5968      2.00000
     32       4.5968      2.00000
     33       9.3208      0.00000
     34      12.3846      0.00000
     35      12.3846      0.00000
     36      12.3846      0.00000
     37      12.3846      0.00000
     38      13.5456      0.00000
     39      13.5457      0.00000
     40      13.5457      0.00000
     41      14.3920      0.00000
     42      14.3920      0.00000
     43      14.3920      0.00000
     44      17.0919      0.00000
     45      17.0919      0.00000
     46      17.0941      0.00000
     47      17.1041      0.00000
     48      17.5598      0.00000

 k-point   2 :       0.3333    0.0000    0.0000
  band No.  band energies     occupation 
      1     -12.1242      2.00000
      2     -11.4620      2.00000
      3     -11.0152      2.00000
[...]
      6.318000  4.212000  4.212000    -0.001987    0.000714    0.000811  
      2.106000  4.212000  4.212000    -0.001987    0.000714    0.000811  
      4.212000  6.318000  4.212000     0.000231    0.000636   -0.000811  
      4.212000  4.212000  6.318000    -0.000231   -0.000714    0.187830  
      6.318000  6.318000  6.318000     0.001987   -0.000636   -0.187830  

  37 f  =    8.557086 THz    53.765760 2PiTHz  285.433672 cm-1    35.389278 meV
             X         Y         Z           dx          dy          dz
      0.000000  0.000000  0.000000    -0.347310    0.195022   -0.005673  
      2.106000  2.106000  0.000000     0.109311    0.150159    0.005673  
      2.106000  0.000000  2.106000    -0.109311   -0.195022    0.146722  
      4.212000  2.106000  2.106000     0.347310   -0.150159   -0.146722  
      0.000000  2.106000  2.106000     0.347310   -0.150159   -0.146722  
      2.106000  4.212000  2.106000    -0.109311   -0.195022    0.146722  
      2.106000  2.106000  4.212000     0.109311    0.150159    0.005673  
      4.212000  4.212000  4.212000    -0.347310    0.195022   -0.005673  
      2.106000  2.106000  2.106000     0.140795   -0.079059    0.002300  
      4.212000  4.212000  2.106000    -0.044313   -0.060872   -0.002300  
      4.212000  2.106000  4.212000     0.044313    0.079059   -0.059479  
      6.318000  4.212000  4.212000    -0.140795    0.060872    0.059479  
      2.106000  4.212000  4.212000    -0.140795    0.060872    0.059479  
      4.212000  6.318000  4.212000     0.044313    0.079059   -0.059479  
      4.212000  4.212000  6.318000    -0.044313   -0.060872   -0.002300  
      6.318000  6.318000  6.318000     0.140795   -0.079059    0.002300  

  38 f  =    7.885595 THz    49.546652 2PiTHz  263.035116 cm-1    32.612210 meV
             X         Y         Z           dx          dy          dz
      0.000000  0.000000  0.000000     0.139985   -0.132735    0.094265  
      2.106000  2.106000  0.000000    -0.208863   -0.252126    0.298811  
      2.106000  0.000000  2.106000    -0.108792   -0.140403    0.392111  
      4.212000  2.106000  2.106000     0.158409   -0.203057   -0.076128  
      0.000000  2.106000  2.106000    -0.158409    0.203057    0.076128  
      2.106000  4.212000  2.106000     0.108792    0.140403   -0.392111  
      2.106000  2.106000  4.212000     0.208863    0.252126   -0.298811  
      4.212000  4.212000  4.212000    -0.139985    0.132735   -0.094265  
      2.106000  2.106000  2.106000     0.000000    0.000000    0.000000  
      4.212000  4.212000  2.106000     0.000000    0.000000    0.000000  
      4.212000  2.106000  4.212000     0.000000    0.000000    0.000000  
      6.318000  4.212000  4.212000     0.000000    0.000000    0.000000  
      2.106000  4.212000  4.212000     0.000000    0.000000    0.000000  
      4.212000  6.318000  4.212000     0.000000    0.000000    0.000000  
      4.212000  4.212000  6.318000     0.000000    0.000000    0.000000  
      6.318000  6.318000  6.318000     0.000000    0.000000    0.000000  

  39 f  =    7.885595 THz    49.546652 2PiTHz  263.035116 cm-1    32.612210 meV
             X         Y         Z           dx          dy          dz
      0.000000  0.000000  0.000000    -0.145377   -0.156263   -0.249188  
      2.106000  2.106000  0.000000     0.138962   -0.275126    0.101584  
      2.106000  0.000000  2.106000     0.123877   -0.158849    0.129749  
      4.212000  2.106000  2.106000    -0.057265    0.373065    0.295225  
      0.000000  2.106000  2.106000     0.057265   -0.373065   -0.295225  
      2.106000  4.212000  2.106000    -0.123877    0.158849   -0.129749  
      2.106000  2.106000  4.212000    -0.138962    0.275126   -0.101584  
      4.212000  4.212000  4.212000     0.145377    0.156263    0.249188  
      2.106000  2.106000  2.106000     0.000000    0.000000    0.000000  
      4.212000  4.212000  2.106000     0.000000    0.000000    0.000000  
      4.212000  2.106000  4.212000     0.000000    0.000000    0.000000  
      6.318000  4.212000  4.212000     0.000000    0.000000    0.000000  
      2.106000  4.212000  4.212000     0.000000    0.000000    0.000000  
      4.212000  6.318000  4.212000     0.000000    0.000000    0.000000  
      4.212000  4.212000  6.318000     0.000000    0.000000    0.000000  
      6.318000  6.318000  6.318000     0.000000    0.000000    0.000000  

  40 f  =    7.885595 THz    49.546652 2PiTHz  263.035116 cm-1    32.612210 meV
             X         Y         Z           dx          dy          dz
      0.000000  0.000000  0.000000     0.140053    0.167020   -0.427654  
      2.106000  2.106000  0.000000     0.013829    0.211962    0.245425  
      2.106000  0.000000  2.106000    -0.297298   -0.130320   -0.071909  
      4.212000  2.106000  2.106000     0.115104    0.130356   -0.153191  
      0.000000  2.106000  2.106000    -0.115104   -0.130356    0.153191  
      2.106000  4.212000  2.106000     0.297298    0.130320    0.071909  
      2.106000  2.106000  4.212000    -0.013829   -0.211962   -0.245425  
      4.212000  4.212000  4.212000    -0.140053   -0.167020    0.427654  
      2.106000  2.106000  2.106000     0.000000    0.000000    0.000000  
      4.212000  4.212000  2.106000     0.000000    0.000000    0.000000  
      4.212000  2.106000  4.212000     0.000000    0.000000    0.000000  
      6.318000  4.212000  4.212000     0.000000    0.000000    0.000000  
      2.106000  4.212000  4.212000     0.000000    0.000000    0.000000  
      4.212000  6.318000  4.212000     0.000000    0.000000    0.000000  
      4.212000  4.212000  6.318000     0.000000    0.000000    0.000000  
      6.318000  6.318000  6.318000     0.000000    0.000000    0.000000  

  41 f  =    7.885595 THz    49.546652 2PiTHz  263.035116 cm-1    32.612210 meV
             X         Y         Z           dx          dy          dz
      0.000000  0.000000  0.000000    -0.039701   -0.240344    0.069545  
      2.106000  2.106000  0.000000     0.115767    0.163021    0.131858  
      2.106000  0.000000  2.106000    -0.221516   -0.250410   -0.202722  
      4.212000  2.106000  2.106000    -0.118551   -0.291061    0.356112  
      0.000000  2.106000  2.106000     0.118551    0.291061   -0.356112  
      2.106000  4.212000  2.106000     0.221516    0.250410    0.202722  
      2.106000  2.106000  4.212000    -0.115767   -0.163021   -0.131858  
      4.212000  4.212000  4.212000     0.039701    0.240344   -0.069545  
      2.106000  2.106000  2.106000     0.000000    0.000000    0.000000  
      4.212000  4.212000  2.106000     0.000000    0.000000    0.000000  
      4.212000  2.106000  4.212000     0.000000    0.000000    0.000000  
      6.318000  4.212000  4.212000     0.000000    0.000000    0.000000  
      2.106000  4.212000  4.212000     0.000000    0.000000    0.000000  
      4.212000  6.318000  4.212000     0.000000    0.000000    0.000000  
      4.212000  4.212000  6.318000     0.000000    0.000000    0.000000  
      6.318000  6.318000  6.318000     0.000000    0.000000    0.000000  

  42 f  =    7.885595 THz    49.546652 2PiTHz  263.035116 cm-1    32.612210 meV
             X         Y         Z           dx          dy          dz
      0.000000  0.000000  0.000000     0.034531   -0.426515   -0.149568  
      2.106000  2.106000  0.000000    -0.473297    0.117912   -0.143822  
      2.106000  0.000000  2.106000    -0.024645    0.061244   -0.083381  
      4.212000  2.106000  2.106000    -0.082578    0.124923   -0.046781  
      0.000000  2.106000  2.106000     0.082578   -0.124923    0.046781  
      2.106000  4.212000  2.106000     0.024645   -0.061244    0.083381  
      2.106000  2.106000  4.212000     0.473297   -0.117912    0.143822  
      4.212000  4.212000  4.212000    -0.034531    0.426515    0.149568  
      2.106000  2.106000  2.106000     0.000000    0.000000    0.000000  
      4.212000  4.212000  2.106000     0.000000    0.000000    0.000000  
      4.212000  2.106000  4.212000     0.000000    0.000000    0.000000  
      6.318000  4.212000  4.212000     0.000000    0.000000    0.000000  
      2.106000  4.212000  4.212000     0.000000    0.000000    0.000000  
      4.212000  6.318000  4.212000     0.000000    0.000000    0.000000  
      4.212000  4.212000  6.318000     0.000000    0.000000    0.000000  
      6.318000  6.318000  6.318000     0.000000    0.000000    0.000000  

  43 f  =    7.885595 THz    49.546652 2PiTHz  263.035116 cm-1    32.612210 meV
             X         Y         Z           dx          dy          dz
      0.000000  0.000000  0.000000    -0.411689    0.122030    0.000693  
      2.106000  2.106000  0.000000    -0.158939   -0.224525    0.045437  
      2.106000  0.000000  2.106000    -0.063375   -0.262255   -0.187164  
      4.212000  2.106000  2.106000    -0.216818   -0.064068   -0.280969  
      0.000000  2.106000  2.106000     0.216818    0.064068    0.280969  
      2.106000  4.212000  2.106000     0.063375    0.262255    0.187164  
      2.106000  2.106000  4.212000     0.158939    0.224525   -0.045437  
      4.212000  4.212000  4.212000     0.411689   -0.122030   -0.000693  
      2.106000  2.106000  2.106000     0.000000    0.000000    0.000000  
      4.212000  4.212000  2.106000     0.000000    0.000000    0.000000  
      4.212000  2.106000  4.212000     0.000000    0.000000    0.000000  
      6.318000  4.212000  4.212000     0.000000    0.000000    0.000000  
      2.106000  4.212000  4.212000     0.000000    0.000000    0.000000  
      4.212000  6.318000  4.212000     0.000000    0.000000    0.000000  
      4.212000  4.212000  6.318000     0.000000    0.000000    0.000000  
      6.318000  6.318000  6.318000     0.000000    0.000000    0.000000  

  44 f  =    7.885595 THz    49.546652 2PiTHz  263.035116 cm-1    32.612210 meV
             X         Y         Z           dx          dy          dz
      0.000000  0.000000  0.000000    -0.245351   -0.089017    0.094615  
      2.106000  2.106000  0.000000    -0.062061    0.024828    0.301567  
      2.106000  0.000000  2.106000     0.144161    0.153423   -0.270179  
      4.212000  2.106000  2.106000     0.454991    0.049546    0.026957  
      0.000000  2.106000  2.106000    -0.454991   -0.049546   -0.026957  
      2.106000  4.212000  2.106000    -0.144161   -0.153423    0.270179  
      2.106000  2.106000  4.212000     0.062061   -0.024828   -0.301567  
      4.212000  4.212000  4.212000     0.245351    0.089017   -0.094615  
      2.106000  2.106000  2.106000     0.000000    0.000000    0.000000  
      4.212000  4.212000  2.106000     0.000000    0.000000    0.000000  
      4.212000  2.106000  4.212000     0.000000    0.000000    0.000000  
      6.318000  4.212000  4.212000     0.000000    0.000000    0.000000  
      2.106000  4.212000  4.212000     0.000000    0.000000    0.000000  
      4.212000  6.318000  4.212000     0.000000    0.000000    0.000000  
      4.212000  4.212000  6.318000     0.000000    0.000000    0.000000  
      6.318000  6.318000  6.318000     0.000000    0.000000    0.000000  

  45 f  =    7.885595 THz    49.546652 2PiTHz  263.035116 cm-1    32.612210 meV
             X         Y         Z           dx          dy          dz
      0.000000  0.000000  0.000000     0.201332    0.030080    0.208099  
      2.106000  2.106000  0.000000    -0.060685    0.240076    0.205947  
      2.106000  0.000000  2.106000     0.378536   -0.335607   -0.038745  
      4.212000  2.106000  2.106000    -0.129660    0.170437   -0.090765  
      0.000000  2.106000  2.106000     0.129660   -0.170437    0.090765  
      2.106000  4.212000  2.106000    -0.378536    0.335607    0.038745  
      2.106000  2.106000  4.212000     0.060685   -0.240076   -0.205947  
      4.212000  4.212000  4.212000    -0.201332   -0.030080   -0.208099  
      2.106000  2.106000  2.106000     0.000000    0.000000    0.000000  
      4.212000  4.212000  2.106000     0.000000    0.000000    0.000000  
      4.212000  2.106000  4.212000     0.000000    0.000000    0.000000  
      6.318000  4.212000  4.212000     0.000000    0.000000    0.000000  
      2.106000  4.212000  4.212000     0.000000    0.000000    0.000000  
      4.212000  6.318000  4.212000     0.000000    0.000000    0.000000  
      4.212000  4.212000  6.318000     0.000000    0.000000    0.000000  
      6.318000  6.318000  6.318000     0.000000    0.000000    0.000000  

  46 f/i=    0.012664 THz     0.079572 2PiTHz    0.422435 cm-1     0.052375 meV
             X         Y         Z           dx          dy          dz
      0.000000  0.000000  0.000000    -0.068967    0.259854    0.056884  
      2.106000  2.106000  0.000000    -0.068967    0.259854    0.056884  
      2.106000  0.000000  2.106000    -0.068967    0.259854    0.056884  
      4.212000  2.106000  2.106000    -0.068967    0.259854    0.056884  
      0.000000  2.106000  2.106000    -0.068967    0.259854    0.056884  
      2.106000  4.212000  2.106000    -0.068967    0.259854    0.056884  
      2.106000  2.106000  4.212000    -0.068967    0.259854    0.056884  
      4.212000  4.212000  4.212000    -0.068967    0.259854    0.056884  
      2.106000  2.106000  2.106000    -0.055828    0.210349    0.046047  
      4.212000  4.212000  2.106000    -0.055828    0.210349    0.046047  
      4.212000  2.106000  4.212000    -0.055828    0.210349    0.046047  
      6.318000  4.212000  4.212000    -0.055828    0.210349    0.046047  
      2.106000  4.212000  4.212000    -0.055828    0.210349    0.046047  
      4.212000  6.318000  4.212000    -0.055828    0.210349    0.046047  
      4.212000  4.212000  6.318000    -0.055828    0.210349    0.046047  
      6.318000  6.318000  6.318000    -0.055828    0.210349    0.046047  

  47 f/i=    0.012664 THz     0.079572 2PiTHz    0.422435 cm-1     0.052375 meV
             X         Y         Z           dx          dy          dz
      0.000000  0.000000  0.000000     0.262462    0.076036   -0.029133  
      2.106000  2.106000  0.000000     0.262462    0.076036   -0.029133  
      2.106000  0.000000  2.106000     0.262462    0.076036   -0.029133  
      4.212000  2.106000  2.106000     0.262462    0.076036   -0.029133  
      0.000000  2.106000  2.106000     0.262462    0.076036   -0.029133  
      2.106000  4.212000  2.106000     0.262462    0.076036   -0.029133  
      2.106000  2.106000  4.212000     0.262462    0.076036   -0.029133  
      4.212000  4.212000  4.212000     0.262462    0.076036   -0.029133  
      2.106000  2.106000  2.106000     0.212459    0.061551   -0.023583  
      4.212000  4.212000  2.106000     0.212459    0.061551   -0.023583  
      4.212000  2.106000  4.212000     0.212459    0.061551   -0.023583  
      6.318000  4.212000  4.212000     0.212459    0.061551   -0.023583  
      2.106000  4.212000  4.212000     0.212459    0.061551   -0.023583  
      4.212000  6.318000  4.212000     0.212459    0.061551   -0.023583  
      4.212000  4.212000  6.318000     0.212459    0.061551   -0.023583  
      6.318000  6.318000  6.318000     0.212459    0.061551   -0.023583  

  48 f/i=    0.012664 THz     0.079572 2PiTHz    0.422435 cm-1     0.052375 meV
             X         Y         Z           dx          dy          dz
      0.000000  0.000000  0.000000     0.043288   -0.047018    0.267267  
      2.106000  2.106000  0.000000     0.043288   -0.047018    0.267267  
      2.106000  0.000000  2.106000     0.043288   -0.047018    0.267267  
      4.212000  2.106000  2.106000     0.043288   -0.047018    0.267267  
      0.000000  2.106000  2.106000     0.043288   -0.047018    0.267267  
      2.106000  4.212000  2.106000     0.043288   -0.047018    0.267267  
      2.106000  2.106000  4.212000     0.043288   -0.047018    0.267267  
      4.212000  4.212000  4.212000     0.043288   -0.047018    0.267267  
      2.106000  2.106000  2.106000     0.035041   -0.038060    0.216350  
      4.212000  4.212000  2.106000     0.035041   -0.038060    0.216350  
      4.212000  2.106000  4.212000     0.035041   -0.038060    0.216350  
      6.318000  4.212000  4.212000     0.035041   -0.038060    0.216350  
      2.106000  4.212000  4.212000     0.035041   -0.038060    0.216350  
      4.212000  6.318000  4.212000     0.035041   -0.038060    0.216350  
      4.212000  4.212000  6.318000     0.035041   -0.038060    0.216350  
      6.318000  6.318000  6.318000     0.035041   -0.038060    0.216350  



--------------------------------------------------------------------------------------------------------


  LATTYP: Found a face centered cubic cell.
 ALAT       =     8.4240000000
  
  Lattice vectors:
  
 A1 = (   0.0000000000,   4.2120000000,   4.2120000000)
 A2 = (   4.2120000000,   0.0000000000,   4.2120000000)
 A3 = (   4.2120000000,   4.2120000000,   0.0000000000)
 Subroutine PRICEL returns following result:
 
  LATTYP: Found a face centered cubic cell.
 ALAT       =     4.2120000000
  
  Lattice vectors:
  
 A1 = (   0.0000000000,   2.1060000000,   2.1060000000)
 A2 = (   2.1060000000,   0.0000000000,   2.1060000000)
 A3 = (   2.1060000000,   2.1060000000,   0.0000000000)
 
   8 primitive cells build up your supercell.
 

Analysis of symmetry for initial positions (statically):

 Routine SETGRP: Setting up the symmetry group for a 
 face centered cubic supercell.


 Subroutine GETGRP returns: Found 48 space group operations
 (whereof 48 operations were pure point group operations)
 out of a pool of 48 trial point group operations.


The static configuration has the point symmetry O_h .

Analysis of symmetry for dynamics (positions and initial velocities):

 Subroutine DYNSYM returns: Found 48 space group operations
 (whereof 48 operations were pure point group operations)
 out of a pool of 48 trial space group operations
 (whereof 48 operations were pure point group operations)
 and found also     8 'primitive' translations


The dynamic configuration has the point symmetry O_h .

 KPOINTS: Magnesium Oxide                         

Automatic generation of k-mesh.
 
 Subroutine IBZKPT returns following result:
 ===========================================
 
 Found      4 irreducible k-points:
 
 Following reciprocal coordinates:
            Coordinates               Weight
  0.000000  0.000000  0.000000      1.000000
  0.333333  0.000000  0.000000      8.000000
  0.333333  0.333333  0.000000      6.000000
 -0.333333  0.333333  0.000000     12.000000
 
 Following cartesian coordinates:
            Coordinates               Weight
  0.000000  0.000000  0.000000      1.000000
 -0.039569  0.039569  0.039569      8.000000
  0.000000  0.000000  0.079139      6.000000
  0.079139 -0.079139  0.000000     12.000000
 
 TETIRR: Found      7 inequivalent tetrahedra from      162
 writing wavefunctions
     LOOP+:  cpu time    7.85: real time    7.88
    4ORBIT:  cpu time    0.00: real time    0.00
 BZINTS: Fermi energy:  4.731703; 64.000000 electrons
         Band energy: -45.944964;  BLOECHL correction:  0.000000

 total amount of memory used by VASP on root node    41946. kBytes
========================================================================

   base      :      30000. kBytes
   nonl-proj :       2101. kBytes
   fftplans  :       2464. kBytes
   grid      :       6233. kBytes
   one-center:         49. kBytes
   wavefun   :       1099. kBytes

  
  
 General timing and accounting informations for this job:
 ========================================================
  
                  Total CPU time used (sec):       44.571
                            User time (sec):       41.711
                          System time (sec):        2.861
                         Elapsed time (sec):       46.591
  
                   Maximum memory used (kb):       42716.
                   Average memory used (kb):           0.
  
                          Minor page faults:      1751166
                          Major page faults:            0
                 Voluntary context switches:        11443
