<?xml version="1.0" encoding="ISO-8859-1"?>
<modeling>
 <generator>
  <i name="program" type="string">vasp </i>
  <i name="version" type="string">5.2.12  </i>
  <i name="subversion" type="string">26May11 complex  parallel </i>
  <i name="platform" type="string">unknown </i>
  <i name="date" type="string">2013 05 12 </i>
  <i name="time" type="string">12:57:44 </i>
 </generator>
 <incar>
  <i type="string" name="PREC">a</i>
  <i type="int" name="IBRION">     6</i>
  <i name="EDIFF">      0.00000100</i>
  <i type="int" name="NSW">     1</i>
  <i type="int" name="ISIF">     0</i>
  <i type="int" name="ISMEAR">    -5</i>
  <i type="logical" name="LPEAD"> F  </i>
  <i type="logical" name="LCALCPOL"> F  </i>
  <i type="logical" name="LCALCEPS"> F  </i>
  <v name="EFIELD_PEAD">      0.00000000      0.00000000      0.00000000</v>
  <i type="logical" name="LEFG"> F  </i>
  <v name="QUAD_EFG">      1.00000000      1.00000000</v>
  <i type="logical" name="LRHFATM"> F  </i>
  <i type="string" name="METAGGA">--</i>
  <i type="int" name="LMAXTAU">     0</i>
 </incar>
 <kpoints>
  <generation param="Gamma">
   <v type="int" name="divisions">       3        3        3 </v>
   <v name="usershift">      0.00000000       0.00000000       0.00000000 </v>
   <v name="genvec1">      0.33333333       0.00000000       0.00000000 </v>
   <v name="genvec2">      0.00000000       0.33333333       0.00000000 </v>
   <v name="genvec3">      0.00000000       0.00000000       0.33333333 </v>
   <v name="shift">      0.00000000       0.00000000       0.00000000 </v>
  </generation>
  <varray name="kpointlist" >
   <v>       0.00000000       0.00000000       0.00000000 </v>
   <v>       0.33333333       0.00000000       0.00000000 </v>
   <v>       0.33333333       0.33333333       0.00000000 </v>
   <v>      -0.33333333       0.33333333       0.00000000 </v>
  </varray>
  <varray name="weights" >
   <v>       0.03703704 </v>
   <v>       0.29629630 </v>
   <v>       0.22222222 </v>
   <v>       0.44444444 </v>
  </varray>
  <varray name="tetrahedronlist"  type="int" >
   <v type="int" >       24        1        2        2        3 </v>
   <v type="int" >       48        2        3        4        4 </v>
   <v type="int" >       24        2        2        4        4 </v>
   <v type="int" >       24        2        2        3        4 </v>
   <v type="int" >       12        3        3        4        4 </v>
   <v type="int" >       24        3        4        4        4 </v>
   <v type="int" >        6        4        4        4        4 </v>
  </varray>
  <i name="volumeweight">      0.00617284 </i>
 </kpoints>
 <parameters>
  <separator name="general" >
   <i type="string" name="SYSTEM">unknown system</i>
   <i type="logical" name="LCOMPAT"> F  </i>
  </separator>
  <separator name="electronic" >
   <i type="string" name="PREC">a</i>
   <i name="ENMAX">    400.00000000</i>
   <i name="ENAUG">    605.39200000</i>
   <i name="EDIFF">      0.00000100</i>
   <i type="int" name="IALGO">    38</i>
   <i type="int" name="IWAVPR">    11</i>
   <i type="int" name="NBANDS">    48</i>
   <i name="NELECT">     64.00000000</i>
   <i type="int" name="TURBO">     0</i>
   <i type="int" name="IRESTART">     0</i>
   <i type="int" name="NREBOOT">     0</i>
   <i type="int" name="NMIN">     0</i>
   <i name="EREF">      0.00000000</i>
   <separator name="electronic smearing" >
    <i type="int" name="ISMEAR">    -5</i>
    <i name="SIGMA">      0.20000000</i>
    <i name="KSPACING">      0.50000000</i>
    <i type="logical" name="KGAMMA"> T  </i>
   </separator>
   <separator name="electronic projectors" >
    <i type="logical" name="LREAL"> F  </i>
    <v name="ROPT">      0.00000000      0.00000000</v>
    <i type="int" name="LMAXPAW">  -100</i>
    <i type="int" name="LMAXMIX">     2</i>
   </separator>
   <separator name="electronic startup" >
    <i type="int" name="ISTART">     0</i>
    <i type="int" name="ICHARG">     2</i>
    <i type="int" name="INIWAV">     1</i>
   </separator>
   <separator name="electronic spin" >
    <i type="int" name="ISPIN">     1</i>
    <i type="logical" name="LNONCOLLINEAR"> F  </i>
    <v name="MAGMOM">      1.00000000      1.00000000      1.00000000      1.00000000      1.00000000      1.00000000      1.00000000      1.00000000      1.00000000      1.00000000      1.00000000      1.00000000      1.00000000      1.00000000      1.00000000      1.00000000</v>
    <i name="NUPDOWN">     -1.00000000</i>
    <i type="logical" name="LSORBIT"> F  </i>
    <v name="SAXIS">      0.00000000      0.00000000      1.00000000</v>
    <i type="logical" name="LSPIRAL"> F  </i>
    <v name="QSPIRAL">      0.00000000      0.00000000      0.00000000</v>
    <i type="logical" name="LZEROZ"> F  </i>
   </separator>
   <separator name="electronic exchange-correlation" >
    <i type="logical" name="LASPH"> F  </i>
    <i type="logical" name="LMETAGGA"> F  </i>
   </separator>
   <separator name="electronic convergence" >
    <i type="int" name="NELM">    60</i>
    <i type="int" name="NELMDL">    -5</i>
    <i type="int" name="NELMIN">     2</i>
    <i name="ENINI">    400.00000000</i>
    <separator name="electronic convergence detail" >
     <i type="logical" name="LDIAG"> T  </i>
     <i type="logical" name="LSUBROT"> T  </i>
     <i name="WEIMIN">      0.00100000</i>
     <i name="EBREAK">      0.00000001</i>
     <i name="DEPER">      0.30000000</i>
     <i type="int" name="NRMM">     4</i>
     <i name="TIME">      0.40000000</i>
    </separator>
   </separator>
   <separator name="electronic mixer" >
    <i name="AMIX">      0.40000000</i>
    <i name="BMIX">      1.00000000</i>
    <i name="AMIN">      0.10000000</i>
    <i name="AMIX_MAG">      1.60000000</i>
    <i name="BMIX_MAG">      1.00000000</i>
    <separator name="electronic mixer details" >
     <i type="int" name="IMIX">     4</i>
     <i type="int" name="MAXMIX">   -45</i>
     <i name="WC">    100.00000000</i>
     <i type="int" name="INIMIX">     1</i>
     <i type="int" name="MIXPRE">     1</i>
     <i type="int" name="MREMOVE">     5</i>
    </separator>
   </separator>
   <separator name="electronic dipolcorrection" >
    <i type="logical" name="LDIPOL"> F  </i>
    <i type="logical" name="LMONO"> F  </i>
    <i type="int" name="IDIPOL">     0</i>
    <i name="EPSILON">      1.00000000</i>
    <v name="DIPOL">   -100.00000000   -100.00000000   -100.00000000</v>
    <i name="EFIELD">      0.00000000</i>
   </separator>
  </separator>
  <separator name="grids" >
   <i type="int" name="NGX">    40</i>
   <i type="int" name="NGY">    40</i>
   <i type="int" name="NGZ">    40</i>
   <i type="int" name="NGXF">    80</i>
   <i type="int" name="NGYF">    80</i>
   <i type="int" name="NGZF">    80</i>
   <i type="logical" name="ADDGRID"> F  </i>
  </separator>
  <separator name="ionic" >
   <i type="int" name="NSW">   229</i>
   <i type="int" name="IBRION">     6</i>
   <i type="int" name="ISIF">     0</i>
   <i name="PSTRESS">      0.00000000</i>
   <i name="EDIFFG">      0.00001000</i>
   <i type="int" name="NFREE">     2</i>
   <i name="POTIM">      0.50000000</i>
   <i name="SMASS">     -3.00000000</i>
   <i name="SCALEE">      1.00000000</i>
  </separator>
  <separator name="ionic md" >
   <i name="TEBEG">      0.00010000</i>
   <i name="TEEND">      0.00010000</i>
   <i type="int" name="NBLOCK">     1</i>
   <i type="int" name="KBLOCK">     1</i>
   <i type="int" name="NPACO">   256</i>
   <i name="APACO">     16.00000000</i>
  </separator>
  <separator name="symmetry" >
   <i type="int" name="ISYM">     2</i>
   <i name="SYMPREC">      0.00001000</i>
  </separator>
  <separator name="dos" >
   <i type="logical" name="LORBIT"> F  </i>
   <v name="RWIGS">     -1.00000000     -1.00000000</v>
   <i type="int" name="NEDOS">   301</i>
   <i name="EMIN">     10.00000000</i>
   <i name="EMAX">    -10.00000000</i>
   <i name="EFERMI">      0.00000000</i>
  </separator>
  <separator name="writing" >
   <i type="int" name="NWRITE">     2</i>
   <i type="logical" name="LWAVE"> T  </i>
   <i type="logical" name="LCHARG"> T  </i>
   <i type="logical" name="LPARD"> F  </i>
   <i type="logical" name="LVTOT"> F  </i>
   <i type="logical" name="LVHAR"> F  </i>
   <i type="logical" name="LELF"> F  </i>
   <i type="logical" name="LOPTICS"> F  </i>
   <v name="STM">      0.00000000      0.00000000      0.00000000      0.00000000      0.00000000      0.00000000      0.00000000</v>
  </separator>
  <separator name="performance" >
   <i type="int" name="NPAR">     8</i>
   <i type="int" name="NSIM">     4</i>
   <i type="int" name="NBLK">    -1</i>
   <i type="logical" name="LPLANE"> T  </i>
   <i type="logical" name="LSCALAPACK"> T  </i>
   <i type="logical" name="LSCAAWARE"> F  </i>
   <i type="logical" name="LSCALU"> F  </i>
   <i type="logical" name="LASYNC"> F  </i>
   <i type="logical" name="LORBITALREAL"> F  </i>
  </separator>
  <separator name="miscellaneous" >
   <i type="int" name="IDIOT">     3</i>
   <i type="logical" name="LMUSIC"> F  </i>
   <v name="POMASS">     24.30500000     16.00000000</v>
   <v name="DARWINR">      0.00000000      0.00000000</v>
   <v name="DARWINV">      1.00000000      1.00000000</v>
   <i type="logical" name="LCORR"> T  </i>
  </separator>
  <i type="logical" name="GGA_COMPAT"> T  </i>
  <i type="logical" name="LBERRY"> F  </i>
  <i type="int" name="ICORELEVEL">     0</i>
  <i type="logical" name="LDAU"> F  </i>
  <i type="int" name="I_CONSTRAINED_M">     0</i>
  <separator name="electronic exchange-correlation" >
   <i type="string" name="GGA">--</i>
   <i type="int" name="VOSKOWN">     0</i>
   <i type="logical" name="LHFCALC"> F  </i>
   <i type="string" name="PRECFOCK"></i>
   <i type="logical" name="LHFONE"> F  </i>
   <i type="logical" name="LRHFCALC"> F  </i>
   <i type="logical" name="LTHOMAS"> F  </i>
   <i type="logical" name="LMODELHF"> F  </i>
   <i name="ENCUT4O">     -1.00000000</i>
   <i type="int" name="EXXOEP">     0</i>
   <i type="int" name="FOURORBIT">     0</i>
   <i name="AEXX">      0.00000000</i>
   <i name="HFALPHA">      0.00000000</i>
   <i name="ALDAX">      1.00000000</i>
   <i name="AGGAX">      1.00000000</i>
   <i name="ALDAC">      1.00000000</i>
   <i name="AGGAC">      1.00000000</i>
   <i type="int" name="NKREDX">     1</i>
   <i type="int" name="NKREDY">     1</i>
   <i type="int" name="NKREDZ">     1</i>
   <i type="logical" name="SHIFTRED"> F  </i>
   <i type="logical" name="ODDONLY"> F  </i>
   <i type="logical" name="EVENONLY"> F  </i>
   <i type="int" name="LMAXFOCK">     0</i>
   <i type="int" name="NMAXFOCKAE">     0</i>
   <i type="logical" name="LFOCKAEDFT"> F  </i>
   <i name="HFSCREEN">      0.00000000</i>
   <i name="HFSCREENC">      0.00000000</i>
  </separator>
  <separator name="model GW" >
   <i type="int" name="MODEL_GW">     0</i>
   <i name="MODEL_EPS0">      5.60436421</i>
   <i name="MODEL_ALPHA">      1.00000000</i>
  </separator>
  <separator name="linear response parameters" >
   <i type="logical" name="LEPSILON"> F  </i>
   <i type="logical" name="LRPA"> F  </i>
   <i type="logical" name="LNABLA"> F  </i>
   <i type="logical" name="LVEL"> F  </i>
   <i type="int" name="KINTER">     0</i>
   <i name="CSHIFT">      0.10000000</i>
   <i name="OMEGAMAX">     -1.00000000</i>
  </separator>
  <separator name="orbital magnetization" >
   <i type="logical" name="NUCIND"> F  </i>
   <v name="MAGPOS">      0.00000000      0.00000000      0.00000000</v>
   <i type="logical" name="LNICSALL"> T  </i>
   <i type="logical" name="ORBITALMAG"> F  </i>
   <i type="logical" name="LMAGBLOCH"> F  </i>
   <i type="logical" name="LCHIMAG"> F  </i>
   <i type="logical" name="LGAUGE"> T  </i>
   <i type="int" name="MAGATOM">     0</i>
   <v name="MAGDIPOL">      0.00000000      0.00000000      0.00000000</v>
   <v name="AVECCONST">      0.00000000      0.00000000      0.00000000</v>
  </separator>
  <separator name="response functions" >
   <i type="logical" name="LADDER"> F  </i>
   <i type="logical" name="LHARTREE"> T  </i>
   <i type="int" name="IBSE">     0</i>
   <i type="logical" name="LTCTE"> F  </i>
   <i type="logical" name="LTETE"> F  </i>
   <i type="logical" name="L2ORDER"> F  </i>
   <i type="logical" name="LUSEW"> F  </i>
   <i name="ENCUTGW">     -2.00000000</i>
   <i name="ENCUTGWSOFT">     -2.00000000</i>
   <i name="ENCUTLF">     -1.00000000</i>
   <i type="int" name="LMAXMP2">    -1</i>
   <i name="SCISSOR">      0.00000000</i>
   <i type="int" name="NOMEGA">     0</i>
   <i type="int" name="NOMEGAR">     0</i>
   <i type="int" name="NBANDSGW">    -1</i>
   <i type="int" name="NBANDSO">    -1</i>
   <i type="int" name="NBANDSV">    -1</i>
   <i name="OPTEMAX">      0.00000000</i>
   <i type="int" name="NELM">     1</i>
   <i type="int" name="DIM">     3</i>
   <i type="int" name="ANTIRES">     0</i>
   <i name="OMEGAMAX">    -30.00000000</i>
   <i name="OMEGATL">   -200.00000000</i>
   <i type="int" name="OMEGAGRID">     0</i>
   <i name="CSHIFT">     -0.10000000</i>
   <i type="logical" name="SELFENERGY"> F  </i>
   <i type="logical" name="LSPECTRAL"> F  </i>
   <i type="logical" name="ODDONLYGW"> F  </i>
   <i type="logical" name="EVENONLYGW"> F  </i>
   <i type="int" name="NKREDLFX">     1</i>
   <i type="int" name="NKREDLFY">     1</i>
   <i type="int" name="NKREDLFZ">     1</i>
   <i type="int" name="MAXMEM">  1800</i>
   <i type="int" name="TELESCOPE">     0</i>
  </separator>
 </parameters>
 <atominfo>
  <atoms>      16 </atoms>
  <types>       2 </types>
  <array name="atoms" >
   <dimension dim="1">ion</dimension>
   <field type="string">element</field>
   <field type="int">atomtype</field>
   <set>
    <rc><c>Mg</c><c>   1</c></rc>
    <rc><c>Mg</c><c>   1</c></rc>
    <rc><c>Mg</c><c>   1</c></rc>
    <rc><c>Mg</c><c>   1</c></rc>
    <rc><c>Mg</c><c>   1</c></rc>
    <rc><c>Mg</c><c>   1</c></rc>
    <rc><c>Mg</c><c>   1</c></rc>
    <rc><c>Mg</c><c>   1</c></rc>
    <rc><c>O </c><c>   2</c></rc>
    <rc><c>O </c><c>   2</c></rc>
    <rc><c>O </c><c>   2</c></rc>
    <rc><c>O </c><c>   2</c></rc>
    <rc><c>O </c><c>   2</c></rc>
    <rc><c>O </c><c>   2</c></rc>
    <rc><c>O </c><c>   2</c></rc>
    <rc><c>O </c><c>   2</c></rc>
   </set>
  </array>
  <array name="atomtypes" >
   <dimension dim="1">type</dimension>
   <field type="int">atomspertype</field>
   <field type="string">element</field>
   <field>mass</field>
   <field>valence</field>
   <field type="string">pseudopotential</field>
   <set>
    <rc><c>   8</c><c>Mg</c><c>     24.30500000</c><c>      2.00000000</c><c> PAW Mg 02Mar1998                       </c></rc>
    <rc><c>   8</c><c>O </c><c>     16.00000000</c><c>      6.00000000</c><c> PAW O 31May2000                        </c></rc>
   </set>
  </array>
 </atominfo>
 <structure name="initialpos" >
  <crystal>
   <varray name="basis" >
    <v>       0.00000000       4.21200000       4.21200000 </v>
    <v>       4.21200000       0.00000000       4.21200000 </v>
    <v>       4.21200000       4.21200000       0.00000000 </v>
   </varray>
   <i name="volume">    149.44971226 </i>
   <varray name="rec_basis" >
    <v>      -0.11870845       0.11870845       0.11870845 </v>
    <v>       0.11870845      -0.11870845       0.11870845 </v>
    <v>       0.11870845       0.11870845      -0.11870845 </v>
   </varray>
  </crystal>
  <varray name="positions" >
   <v>       0.00000000       0.00000000       0.00000000 </v>
   <v>       0.00000000       0.00000000       0.50000000 </v>
   <v>       0.00000000       0.50000000       0.00000000 </v>
   <v>       0.00000000       0.50000000       0.50000000 </v>
   <v>       0.50000000       0.00000000       0.00000000 </v>
   <v>       0.50000000       0.00000000       0.50000000 </v>
   <v>       0.50000000       0.50000000       0.00000000 </v>
   <v>       0.50000000       0.50000000       0.50000000 </v>
   <v>       0.25000000       0.25000000       0.25000000 </v>
   <v>       0.25000000       0.25000000       0.75000000 </v>
   <v>       0.25000000       0.75000000       0.25000000 </v>
   <v>       0.25000000       0.75000000       0.75000000 </v>
   <v>       0.75000000       0.25000000       0.25000000 </v>
   <v>       0.75000000       0.25000000       0.75000000 </v>
   <v>       0.75000000       0.75000000       0.25000000 </v>
   <v>       0.75000000       0.75000000       0.75000000 </v>
  </varray>
 </structure>
 <calculation>
  <scstep>
   <time name="dav">    0.62    0.93</time>
   <time name="total">    0.66    1.01</time>
   <energy>
    <i name="alphaZ">     33.29328806 </i>
    <i name="ewald">  -2865.57248191 </i>
    <i name="hartreedc">   -960.80578770 </i>
    <i name="XCdc">    166.19994294 </i>
    <i name="pawpsdc">   2056.17291390 </i>
    <i name="pawaedc">  -1984.97938003 </i>
    <i name="eentropy">      0.00000000 </i>
    <i name="bandstr">    146.33433784 </i>
    <i name="atom">   3636.14291937 </i>
    <i name="e_fr_energy">    226.78575246 </i>
    <i name="e_wo_entrp">    226.78575246 </i>
    <i name="e_0_energy">    226.78575246 </i>
   </energy>
  </scstep>
  <scstep>
   <time name="dav">    0.69    0.69</time>
   <time name="total">    0.69    0.69</time>
   <energy>
    <i name="e_fr_energy">   -103.76268453 </i>
    <i name="e_wo_entrp">   -103.76268453 </i>
    <i name="e_0_energy">   -103.76268453 </i>
   </energy>
  </scstep>
  <scstep>
   <time name="dav">    0.65    0.65</time>
   <time name="total">    0.65    0.65</time>
   <energy>
    <i name="e_fr_energy">   -118.60564493 </i>
    <i name="e_wo_entrp">   -118.60564493 </i>
    <i name="e_0_energy">   -118.60564493 </i>
   </energy>
  </scstep>
  <scstep>
   <time name="dav">    0.66    0.66</time>
   <time name="total">    0.66    0.68</time>
   <energy>
    <i name="e_fr_energy">   -118.72508396 </i>
    <i name="e_wo_entrp">   -118.72508396 </i>
    <i name="e_0_energy">   -118.72508396 </i>
   </energy>
  </scstep>
  <scstep>
   <time name="dav">    0.64    0.64</time>
   <time name="total">    0.72    0.75</time>
   <energy>
    <i name="e_fr_energy">   -118.72687664 </i>
    <i name="e_wo_entrp">   -118.72687664 </i>
    <i name="e_0_energy">   -118.72687664 </i>
   </energy>
  </scstep>
  <scstep>
   <time name="dav">    0.63    0.63</time>
   <time name="total">    0.74    0.77</time>
   <energy>
    <i name="e_fr_energy">   -106.94617085 </i>
    <i name="e_wo_entrp">   -106.94617085 </i>
    <i name="e_0_energy">   -106.94617085 </i>
   </energy>
  </scstep>
  <scstep>
   <time name="dav">    0.60    0.60</time>
   <time name="total">    0.71    0.71</time>
   <energy>
    <i name="e_fr_energy">   -106.70404269 </i>
    <i name="e_wo_entrp">   -106.70404269 </i>
    <i name="e_0_energy">   -106.70404269 </i>
   </energy>
  </scstep>
  <scstep>
   <time name="dav">    0.62    0.62</time>
   <time name="total">    0.73    0.73</time>
   <energy>
    <i name="e_fr_energy">   -106.51610620 </i>
    <i name="e_wo_entrp">   -106.51610620 </i>
    <i name="e_0_energy">   -106.51610620 </i>
   </energy>
  </scstep>
  <scstep>
   <time name="dav">    0.64    0.64</time>
   <time name="total">    0.75    0.75</time>
   <energy>
    <i name="e_fr_energy">   -106.50657319 </i>
    <i name="e_wo_entrp">   -106.50657319 </i>
    <i name="e_0_energy">   -106.50657319 </i>
   </energy>
  </scstep>
  <scstep>
   <time name="dav">    0.66    0.66</time>
   <time name="total">    0.77    0.77</time>
   <energy>
    <i name="e_fr_energy">   -106.50626944 </i>
    <i name="e_wo_entrp">   -106.50626944 </i>
    <i name="e_0_energy">   -106.50626944 </i>
   </energy>
  </scstep>
  <scstep>
   <time name="dav">    0.65    0.65</time>
   <time name="total">    0.77    0.77</time>
   <energy>
    <i name="e_fr_energy">   -106.50627457 </i>
    <i name="e_wo_entrp">   -106.50627457 </i>
    <i name="e_0_energy">   -106.50627457 </i>
   </energy>
  </scstep>
  <scstep>
   <time name="dav">    0.61    0.61</time>
   <time name="total">    0.73    0.73</time>
   <energy>
    <i name="e_fr_energy">   -106.50627207 </i>
    <i name="e_wo_entrp">   -106.50627207 </i>
    <i name="e_0_energy">   -106.50627207 </i>
   </energy>
  </scstep>
  <scstep>
   <time name="dav">    0.46    0.46</time>
   <time name="total">    0.50    0.50</time>
   <energy>
    <i name="alphaZ">     33.29328806 </i>
    <i name="ewald">  -2865.57248191 </i>
    <i name="hartreedc">  -1111.83609825 </i>
    <i name="XCdc">    178.35054435 </i>
    <i name="pawpsdc">   2535.01080531 </i>
    <i name="pawaedc">  -2465.94939722 </i>
    <i name="eentropy">      0.00000000 </i>
    <i name="bandstr">    -45.94585171 </i>
    <i name="atom">   3636.14291937 </i>
    <i name="e_fr_energy">   -106.50627200 </i>
    <i name="e_wo_entrp">   -106.50627200 </i>
    <i name="e_0_energy">   -106.50627200 </i>
   </energy>
  </scstep>
  <parameters_embedded>
   <separator name="dft+d2" >
    <i type="logical" name="LVDW"> F  </i>
   </separator>
  </parameters_embedded>
  <structure>
   <crystal>
    <varray name="basis" >
     <v>       0.00000000       4.21200000       4.21200000 </v>
     <v>       4.21200000       0.00000000       4.21200000 </v>
     <v>       4.21200000       4.21200000       0.00000000 </v>
    </varray>
    <i name="volume">    149.44971226 </i>
    <varray name="rec_basis" >
     <v>      -0.11870845       0.11870845       0.11870845 </v>
     <v>       0.11870845      -0.11870845       0.11870845 </v>
     <v>       0.11870845       0.11870845      -0.11870845 </v>
    </varray>
   </crystal>
   <varray name="positions" >
    <v>       0.00000000       0.00000000       0.00000000 </v>
    <v>       0.00000000       0.00000000       0.50000000 </v>
    <v>       0.00000000       0.50000000       0.00000000 </v>
    <v>       0.00000000       0.50000000       0.50000000 </v>
    <v>       0.50000000       0.00000000       0.00000000 </v>
    <v>       0.50000000       0.00000000       0.50000000 </v>
    <v>       0.50000000       0.50000000       0.00000000 </v>
    <v>       0.50000000       0.50000000       0.50000000 </v>
    <v>       0.25000000       0.25000000       0.25000000 </v>
    <v>       0.25000000       0.25000000       0.75000000 </v>
    <v>       0.25000000       0.75000000       0.25000000 </v>
    <v>       0.25000000       0.75000000       0.75000000 </v>
    <v>       0.75000000       0.25000000       0.25000000 </v>
    <v>       0.75000000       0.25000000       0.75000000 </v>
    <v>       0.75000000       0.75000000       0.25000000 </v>
    <v>       0.75000000       0.75000000       0.75000000 </v>
   </varray>
  </structure>
  <varray name="forces" >
   <v>       0.00000000       0.00000000       0.00000000 </v>
   <v>       0.00000000       0.00000000       0.00000000 </v>
   <v>       0.00000000       0.00000000       0.00000000 </v>
   <v>       0.00000000       0.00000000       0.00000000 </v>
   <v>       0.00000000       0.00000000       0.00000000 </v>
   <v>       0.00000000       0.00000000       0.00000000 </v>
   <v>       0.00000000       0.00000000       0.00000000 </v>
   <v>       0.00000000       0.00000000       0.00000000 </v>
   <v>       0.00000000       0.00000000       0.00000000 </v>
   <v>       0.00000000       0.00000000       0.00000000 </v>
   <v>       0.00000000       0.00000000       0.00000000 </v>
   <v>       0.00000000       0.00000000       0.00000000 </v>
   <v>       0.00000000       0.00000000       0.00000000 </v>
   <v>       0.00000000       0.00000000       0.00000000 </v>
   <v>       0.00000000       0.00000000       0.00000000 </v>
   <v>       0.00000000       0.00000000       0.00000000 </v>
  </varray>
  <energy>
   <i name="e_fr_energy">   -106.50627200 </i>
   <i name="e_wo_entrp">   -106.50627200 </i>
   <i name="e_0_energy">      0.00000000 </i>
  </energy>
  <kpoints>
   <generation param="Gamma">
    <v type="int" name="divisions">       3        3        3 </v>
    <v name="usershift">      0.00000000       0.00000000       0.00000000 </v>
    <v name="genvec1">      0.33333333       0.00000000       0.00000000 </v>
    <v name="genvec2">      0.00000000       0.33333333       0.00000000 </v>
    <v name="genvec3">      0.00000000       0.00000000       0.33333333 </v>
    <v name="shift">      0.00000000       0.00000000       0.00000000 </v>
   </generation>
   <varray name="kpointlist" >
    <v>       0.00000000       0.00000000       0.00000000 </v>
    <v>       0.33333333       0.00000000       0.00000000 </v>
    <v>       0.33333333       0.33333333       0.00000000 </v>
    <v>      -0.33333333       0.33333333       0.00000000 </v>
    <v>       0.00000000       0.33333333       0.33333333 </v>
    <v>      -0.33333333       0.33333333       0.33333333 </v>
   </varray>
   <varray name="weights" >
    <v>       0.03703704 </v>
    <v>       0.29629630 </v>
    <v>       0.14814815 </v>
    <v>       0.29629630 </v>
    <v>       0.07407407 </v>
    <v>       0.14814815 </v>
   </varray>
   <varray name="tetrahedronlist"  type="int" >
    <v type="int" >       16        1        2        2        3 </v>
    <v type="int" >        8        1        2        2        5 </v>
    <v type="int" >       16        2        3        4        6 </v>
    <v type="int" >       16        2        2        4        6 </v>
    <v type="int" >        8        2        2        3        6 </v>
    <v type="int" >        8        2        2        4        5 </v>
    <v type="int" >       16        2        4        5        6 </v>
    <v type="int" >        8        2        2        4        4 </v>
    <v type="int" >       16        2        3        4        4 </v>
    <v type="int" >        8        2        2        3        4 </v>
    <v type="int" >        8        3        3        4        4 </v>
    <v type="int" >        8        3        4        4        6 </v>
    <v type="int" >        8        3        4        4        4 </v>
    <v type="int" >        4        4        4        6        6 </v>
    <v type="int" >        8        4        5        6        6 </v>
    <v type="int" >        2        4        4        4        4 </v>
    <v type="int" >        4        5        5        6        6 </v>
   </varray>
   <i name="volumeweight">      0.00617284 </i>
  </kpoints>
  <time name="totalsc">   11.47   12.05</time>
 </calculation>
 <calculation>
  <scstep>
   <time name="dav">    0.85    0.85</time>
   <time name="total">    0.96    0.96</time>
   <energy>
    <i name="alphaZ">     33.29328806 </i>
    <i name="ewald">  -2865.56685102 </i>
    <i name="hartreedc">  -1111.83544981 </i>
    <i name="XCdc">    178.35030736 </i>
    <i name="pawpsdc">   2535.00596275 </i>
    <i name="pawaedc">  -2465.94445943 </i>
    <i name="eentropy">      0.00000000 </i>
    <i name="bandstr">    -45.95074895 </i>
    <i name="atom">   3636.14291937 </i>
    <i name="e_fr_energy">   -106.50503167 </i>
    <i name="e_wo_entrp">   -106.50503167 </i>
    <i name="e_0_energy">   -106.50503167 </i>
   </energy>
  </scstep>
  <scstep>
   <time name="dav">    1.02    1.02</time>
   <time name="total">    1.13    1.13</time>
   <energy>
    <i name="e_fr_energy">   -106.50507205 </i>
    <i name="e_wo_entrp">   -106.50507205 </i>
    <i name="e_0_energy">   -106.50507205 </i>
   </energy>
  </scstep>
  <scstep>
   <time name="dav">    0.94    0.94</time>
   <time name="total">    1.05    1.05</time>
   <energy>
    <i name="e_fr_energy">   -106.50505480 </i>
    <i name="e_wo_entrp">   -106.50505480 </i>
    <i name="e_0_energy">   -106.50505480 </i>
   </energy>
  </scstep>
  <scstep>
   <time name="dav">    0.98    0.98</time>
   <time name="total">    1.09    1.09</time>
   <energy>
    <i name="e_fr_energy">   -106.50504374 </i>
    <i name="e_wo_entrp">   -106.50504374 </i>
    <i name="e_0_energy">   -106.50504374 </i>
   </energy>
  </scstep>
  <scstep>
   <time name="dav">    1.02    1.02</time>
   <time name="total">    1.14    1.14</time>
   <energy>
    <i name="e_fr_energy">   -106.50503997 </i>
    <i name="e_wo_entrp">   -106.50503997 </i>
    <i name="e_0_energy">   -106.50503997 </i>
   </energy>
  </scstep>
  <scstep>
   <time name="dav">    0.93    0.93</time>
   <time name="total">    0.96    0.96</time>
   <energy>
    <i name="alphaZ">     33.29328806 </i>
    <i name="ewald">  -2865.56685102 </i>
    <i name="hartreedc">  -1111.83831502 </i>
    <i name="XCdc">    178.35056849 </i>
    <i name="pawpsdc">   2535.01204601 </i>
    <i name="pawaedc">  -2465.95058179 </i>
    <i name="eentropy">      0.00000000 </i>
    <i name="bandstr">    -45.94811423 </i>
    <i name="atom">   3636.14291937 </i>
    <i name="e_fr_energy">   -106.50504014 </i>
    <i name="e_wo_entrp">   -106.50504014 </i>
    <i name="e_0_energy">   -106.50504014 </i>
   </energy>
  </scstep>
  <structure>
   <crystal>
    <varray name="basis" >
     <v>       0.00000000       4.21200000       4.21200000 </v>
     <v>       4.21200000       0.00000000       4.21200000 </v>
     <v>       4.21200000       4.21200000       0.00000000 </v>
    </varray>
    <i name="volume">    149.44971226 </i>
    <varray name="rec_basis" >
     <v>      -0.11870845       0.11870845       0.11870845 </v>
     <v>       0.11870845      -0.11870845       0.11870845 </v>
     <v>       0.11870845       0.11870845      -0.11870845 </v>
    </varray>
   </crystal>
   <varray name="positions" >
    <v>      -0.00178063       0.00178063       0.00178063 </v>
    <v>       0.00000000       0.00000000       0.50000000 </v>
    <v>       0.00000000       0.50000000       0.00000000 </v>
    <v>       0.00000000       0.50000000       0.50000000 </v>
    <v>       0.50000000       0.00000000       0.00000000 </v>
    <v>       0.50000000       0.00000000       0.50000000 </v>
    <v>       0.50000000       0.50000000       0.00000000 </v>
    <v>       0.50000000       0.50000000       0.50000000 </v>
    <v>       0.25000000       0.25000000       0.25000000 </v>
    <v>       0.25000000       0.25000000       0.75000000 </v>
    <v>       0.25000000       0.75000000       0.25000000 </v>
    <v>       0.25000000       0.75000000       0.75000000 </v>
    <v>       0.75000000       0.25000000       0.25000000 </v>
    <v>       0.75000000       0.25000000       0.75000000 </v>
    <v>       0.75000000       0.75000000       0.25000000 </v>
    <v>       0.75000000       0.75000000       0.75000000 </v>
   </varray>
  </structure>
  <varray name="forces" >
   <v>      -0.16412395       0.00000000       0.00000000 </v>
   <v>       0.01890903       0.04834543       0.00000000 </v>
   <v>       0.01890903       0.00000000       0.04834543 </v>
   <v>      -0.00568135       0.00000000       0.00000000 </v>
   <v>      -0.00568135       0.00000000       0.00000000 </v>
   <v>       0.01890903       0.00000000      -0.04834543 </v>
   <v>       0.01890903      -0.04834543       0.00000000 </v>
   <v>       0.02533267       0.00000000       0.00000000 </v>
   <v>      -0.00224909       0.00000000       0.00000000 </v>
   <v>       0.01179319       0.00000000      -0.00010298 </v>
   <v>       0.01179319      -0.00010298       0.00000000 </v>
   <v>       0.01365972       0.00000000       0.00000000 </v>
   <v>       0.01818355       0.00000000       0.00000000 </v>
   <v>       0.01179319       0.00010298       0.00000000 </v>
   <v>       0.01179319       0.00000000       0.00010298 </v>
   <v>      -0.00224909       0.00000000       0.00000000 </v>
  </varray>
  <energy>
   <i name="e_fr_energy">   -106.50504014 </i>
   <i name="e_wo_entrp">   -106.50504014 </i>
   <i name="e_0_energy">      0.00000000 </i>
  </energy>
  <kpoints>
   <generation param="Gamma">
    <v type="int" name="divisions">       3        3        3 </v>
    <v name="usershift">      0.00000000       0.00000000       0.00000000 </v>
    <v name="genvec1">      0.33333333       0.00000000       0.00000000 </v>
    <v name="genvec2">      0.00000000       0.33333333       0.00000000 </v>
    <v name="genvec3">      0.00000000       0.00000000       0.33333333 </v>
    <v name="shift">      0.00000000       0.00000000       0.00000000 </v>
   </generation>
   <varray name="kpointlist" >
    <v>       0.00000000       0.00000000       0.00000000 </v>
    <v>       0.33333333       0.00000000       0.00000000 </v>
    <v>       0.33333333       0.33333333       0.00000000 </v>
    <v>      -0.33333333       0.33333333       0.00000000 </v>
    <v>       0.00000000       0.33333333       0.33333333 </v>
    <v>      -0.33333333       0.33333333       0.33333333 </v>
   </varray>
   <varray name="weights" >
    <v>       0.03703704 </v>
    <v>       0.29629630 </v>
    <v>       0.14814815 </v>
    <v>       0.29629630 </v>
    <v>       0.07407407 </v>
    <v>       0.14814815 </v>
   </varray>
   <varray name="tetrahedronlist"  type="int" >
    <v type="int" >       16        1        2        2        3 </v>
    <v type="int" >        8        1        2        2        5 </v>
    <v type="int" >       16        2        3        4        6 </v>
    <v type="int" >       16        2        2        4        6 </v>
    <v type="int" >        8        2        2        3        6 </v>
    <v type="int" >        8        2        2        4        5 </v>
    <v type="int" >       16        2        4        5        6 </v>
    <v type="int" >        8        2        2        4        4 </v>
    <v type="int" >       16        2        3        4        4 </v>
    <v type="int" >        8        2        2        3        4 </v>
    <v type="int" >        8        3        3        4        4 </v>
    <v type="int" >        8        3        4        4        6 </v>
    <v type="int" >        8        3        4        4        4 </v>
    <v type="int" >        4        4        4        6        6 </v>
    <v type="int" >        8        4        5        6        6 </v>
    <v type="int" >        2        4        4        4        4 </v>
    <v type="int" >        4        5        5        6        6 </v>
   </varray>
   <i name="volumeweight">      0.00617284 </i>
  </kpoints>
  <time name="totalsc">    7.16    7.16</time>
 </calculation>
 <calculation>
  <scstep>
   <time name="dav">    0.84    0.84</time>
   <time name="total">    0.95    0.96</time>
   <energy>
    <i name="alphaZ">     33.29328806 </i>
    <i name="ewald">  -2865.56685102 </i>
    <i name="hartreedc">  -1111.83860615 </i>
    <i name="XCdc">    178.35062168 </i>
    <i name="pawpsdc">   2535.01211501 </i>
    <i name="pawaedc">  -2465.95064216 </i>
    <i name="eentropy">      0.00000000 </i>
    <i name="bandstr">    -45.94788816 </i>
    <i name="atom">   3636.14291937 </i>
    <i name="e_fr_energy">   -106.50504339 </i>
    <i name="e_wo_entrp">   -106.50504339 </i>
    <i name="e_0_energy">   -106.50504339 </i>
   </energy>
  </scstep>
  <scstep>
   <time name="dav">    1.02    1.02</time>
   <time name="total">    1.13    1.26</time>
   <energy>
    <i name="e_fr_energy">   -106.50515192 </i>
    <i name="e_wo_entrp">   -106.50515192 </i>
    <i name="e_0_energy">   -106.50515192 </i>
   </energy>
  </scstep>
  <scstep>
   <time name="dav">    0.96    0.96</time>
   <time name="total">    1.07    1.07</time>
   <energy>
    <i name="e_fr_energy">   -106.50508791 </i>
    <i name="e_wo_entrp">   -106.50508791 </i>
    <i name="e_0_energy">   -106.50508791 </i>
   </energy>
  </scstep>
  <scstep>
   <time name="dav">    0.98    0.98</time>
   <time name="total">    1.09    1.09</time>
   <energy>
    <i name="e_fr_energy">   -106.50504910 </i>
    <i name="e_wo_entrp">   -106.50504910 </i>
    <i name="e_0_energy">   -106.50504910 </i>
   </energy>
  </scstep>
  <scstep>
   <time name="dav">    1.00    1.00</time>
   <time name="total">    1.10    1.11</time>
   <energy>
    <i name="e_fr_energy">   -106.50503974 </i>
    <i name="e_wo_entrp">   -106.50503974 </i>
    <i name="e_0_energy">   -106.50503974 </i>
   </energy>
  </scstep>
  <scstep>
   <time name="dav">    0.95    0.95</time>
   <time name="total">    1.06    1.06</time>
   <energy>
    <i name="e_fr_energy">   -106.50504045 </i>
    <i name="e_wo_entrp">   -106.50504045 </i>
    <i name="e_0_energy">   -106.50504045 </i>
   </energy>
  </scstep>
  <scstep>
   <time name="dav">    0.71    0.72</time>
   <time name="total">    0.75    0.75</time>
   <energy>
    <i name="alphaZ">     33.29328806 </i>
    <i name="ewald">  -2865.56685102 </i>
    <i name="hartreedc">  -1111.83789230 </i>
    <i name="XCdc">    178.35053833 </i>
    <i name="pawpsdc">   2535.01122409 </i>
    <i name="pawaedc">  -2465.94973611 </i>
    <i name="eentropy">      0.00000000 </i>
    <i name="bandstr">    -45.94853048 </i>
    <i name="atom">   3636.14291937 </i>
    <i name="e_fr_energy">   -106.50504007 </i>
    <i name="e_wo_entrp">   -106.50504007 </i>
    <i name="e_0_energy">   -106.50504007 </i>
   </energy>
  </scstep>
  <structure>
   <crystal>
    <varray name="basis" >
     <v>       0.00000000       4.21200000       4.21200000 </v>
     <v>       4.21200000       0.00000000       4.21200000 </v>
     <v>       4.21200000       4.21200000       0.00000000 </v>
    </varray>
    <i name="volume">    149.44971226 </i>
    <varray name="rec_basis" >
     <v>      -0.11870845       0.11870845       0.11870845 </v>
     <v>       0.11870845      -0.11870845       0.11870845 </v>
     <v>       0.11870845       0.11870845      -0.11870845 </v>
    </varray>
   </crystal>
   <varray name="positions" >
    <v>       0.00178063      -0.00178063      -0.00178063 </v>
    <v>       0.00000000       0.00000000       0.50000000 </v>
    <v>       0.00000000       0.50000000       0.00000000 </v>
    <v>       0.00000000       0.50000000       0.50000000 </v>
    <v>       0.50000000       0.00000000       0.00000000 </v>
    <v>       0.50000000       0.00000000       0.50000000 </v>
    <v>       0.50000000       0.50000000       0.00000000 </v>
    <v>       0.50000000       0.50000000       0.50000000 </v>
    <v>       0.25000000       0.25000000       0.25000000 </v>
    <v>       0.25000000       0.25000000       0.75000000 </v>
    <v>       0.25000000       0.75000000       0.25000000 </v>
    <v>       0.25000000       0.75000000       0.75000000 </v>
    <v>       0.75000000       0.25000000       0.25000000 </v>
    <v>       0.75000000       0.25000000       0.75000000 </v>
    <v>       0.75000000       0.75000000       0.25000000 </v>
    <v>       0.75000000       0.75000000       0.75000000 </v>
   </varray>
  </structure>
  <varray name="forces" >
   <v>       0.16421088       0.00000000       0.00000000 </v>
   <v>      -0.01891455      -0.04852837       0.00000000 </v>
   <v>      -0.01891455       0.00000000      -0.04852837 </v>
   <v>       0.00565597       0.00000000       0.00000000 </v>
   <v>       0.00565597       0.00000000       0.00000000 </v>
   <v>      -0.01891455       0.00000000       0.04852837 </v>
   <v>      -0.01891455       0.04852837       0.00000000 </v>
   <v>      -0.02559738       0.00000000       0.00000000 </v>
   <v>       0.00222508       0.00000000       0.00000000 </v>
   <v>      -0.01183367       0.00000000      -0.00010735 </v>
   <v>      -0.01183367      -0.00010735       0.00000000 </v>
   <v>      -0.01793728       0.00000000       0.00000000 </v>
   <v>      -0.01344545       0.00000000       0.00000000 </v>
   <v>      -0.01183367       0.00010735       0.00000000 </v>
   <v>      -0.01183367       0.00000000       0.00010735 </v>
   <v>       0.00222508       0.00000000       0.00000000 </v>
  </varray>
  <energy>
   <i name="e_fr_energy">   -106.50504007 </i>
   <i name="e_wo_entrp">   -106.50504007 </i>
   <i name="e_0_energy">      0.00000000 </i>
  </energy>
  <kpoints>
   <generation param="Gamma">
    <v type="int" name="divisions">       3        3        3 </v>
    <v name="usershift">      0.00000000       0.00000000       0.00000000 </v>
    <v name="genvec1">      0.33333333       0.00000000       0.00000000 </v>
    <v name="genvec2">      0.00000000       0.33333333       0.00000000 </v>
    <v name="genvec3">      0.00000000       0.00000000       0.33333333 </v>
    <v name="shift">      0.00000000       0.00000000       0.00000000 </v>
   </generation>
   <varray name="kpointlist" >
    <v>       0.00000000       0.00000000       0.00000000 </v>
    <v>       0.33333333       0.00000000       0.00000000 </v>
    <v>       0.33333333       0.33333333       0.00000000 </v>
    <v>      -0.33333333       0.33333333       0.00000000 </v>
    <v>       0.00000000       0.33333333       0.33333333 </v>
    <v>      -0.33333333       0.33333333       0.33333333 </v>
   </varray>
   <varray name="weights" >
    <v>       0.03703704 </v>
    <v>       0.29629630 </v>
    <v>       0.14814815 </v>
    <v>       0.29629630 </v>
    <v>       0.07407407 </v>
    <v>       0.14814815 </v>
   </varray>
   <varray name="tetrahedronlist"  type="int" >
    <v type="int" >       16        1        2        2        3 </v>
    <v type="int" >        8        1        2        2        5 </v>
    <v type="int" >       16        2        3        4        6 </v>
    <v type="int" >       16        2        2        4        6 </v>
    <v type="int" >        8        2        2        3        6 </v>
    <v type="int" >        8        2        2        4        5 </v>
    <v type="int" >       16        2        4        5        6 </v>
    <v type="int" >        8        2        2        4        4 </v>
    <v type="int" >       16        2        3        4        4 </v>
    <v type="int" >        8        2        2        3        4 </v>
    <v type="int" >        8        3        3        4        4 </v>
    <v type="int" >        8        3        4        4        6 </v>
    <v type="int" >        8        3        4        4        4 </v>
    <v type="int" >        4        4        4        6        6 </v>
    <v type="int" >        8        4        5        6        6 </v>
    <v type="int" >        2        4        4        4        4 </v>
    <v type="int" >        4        5        5        6        6 </v>
   </varray>
   <i name="volumeweight">      0.00617284 </i>
  </kpoints>
  <time name="totalsc">    7.98    8.18</time>
 </calculation>
 <calculation>
  <scstep>
   <time name="dav">    0.88    0.88</time>
   <time name="total">    0.99    0.99</time>
   <energy>
    <i name="alphaZ">     33.29328806 </i>
    <i name="ewald">  -2865.55668047 </i>
    <i name="hartreedc">  -1111.84512102 </i>
    <i name="XCdc">    178.35040210 </i>
    <i name="pawpsdc">   2535.01215888 </i>
    <i name="pawaedc">  -2465.95068283 </i>
    <i name="eentropy">      0.00000000 </i>
    <i name="bandstr">    -45.95051281 </i>
    <i name="atom">   3636.14291937 </i>
    <i name="e_fr_energy">   -106.50422872 </i>
    <i name="e_wo_entrp">   -106.50422872 </i>
    <i name="e_0_energy">   -106.50422872 </i>
   </energy>
  </scstep>
  <scstep>
   <time name="dav">    0.99    0.99</time>
   <time name="total">    1.10    1.10</time>
   <energy>
    <i name="e_fr_energy">   -106.50539902 </i>
    <i name="e_wo_entrp">   -106.50539902 </i>
    <i name="e_0_energy">   -106.50539902 </i>
   </energy>
  </scstep>
  <scstep>
   <time name="dav">    1.00    1.00</time>
   <time name="total">    1.11    1.11</time>
   <energy>
    <i name="e_fr_energy">   -106.50516588 </i>
    <i name="e_wo_entrp">   -106.50516588 </i>
    <i name="e_0_energy">   -106.50516588 </i>
   </energy>
  </scstep>
  <scstep>
   <time name="dav">    0.99    0.99</time>
   <time name="total">    1.10    1.10</time>
   <energy>
    <i name="e_fr_energy">   -106.50511600 </i>
    <i name="e_wo_entrp">   -106.50511600 </i>
    <i name="e_0_energy">   -106.50511600 </i>
   </energy>
  </scstep>
  <scstep>
   <time name="dav">    0.98    0.98</time>
   <time name="total">    1.09    1.09</time>
   <energy>
    <i name="e_fr_energy">   -106.50511579 </i>
    <i name="e_wo_entrp">   -106.50511579 </i>
    <i name="e_0_energy">   -106.50511579 </i>
   </energy>
  </scstep>
  <scstep>
   <time name="dav">    0.81    0.81</time>
   <time name="total">    0.92    0.92</time>
   <energy>
    <i name="e_fr_energy">   -106.50511468 </i>
    <i name="e_wo_entrp">   -106.50511468 </i>
    <i name="e_0_energy">   -106.50511468 </i>
   </energy>
  </scstep>
  <scstep>
   <time name="dav">    0.73    0.73</time>
   <time name="total">    0.77    0.77</time>
   <energy>
    <i name="alphaZ">     33.29328806 </i>
    <i name="ewald">  -2865.55668047 </i>
    <i name="hartreedc">  -1111.85185576 </i>
    <i name="XCdc">    178.35062852 </i>
    <i name="pawpsdc">   2535.01335465 </i>
    <i name="pawaedc">  -2465.95190594 </i>
    <i name="eentropy">      0.00000000 </i>
    <i name="bandstr">    -45.94486276 </i>
    <i name="atom">   3636.14291937 </i>
    <i name="e_fr_energy">   -106.50511434 </i>
    <i name="e_wo_entrp">   -106.50511434 </i>
    <i name="e_0_energy">   -106.50511434 </i>
   </energy>
  </scstep>
  <structure>
   <crystal>
    <varray name="basis" >
     <v>       0.00000000       4.21200000       4.21200000 </v>
     <v>       4.21200000       0.00000000       4.21200000 </v>
     <v>       4.21200000       4.21200000       0.00000000 </v>
    </varray>
    <i name="volume">    149.44971226 </i>
    <varray name="rec_basis" >
     <v>      -0.11870845       0.11870845       0.11870845 </v>
     <v>       0.11870845      -0.11870845       0.11870845 </v>
     <v>       0.11870845       0.11870845      -0.11870845 </v>
    </varray>
   </crystal>
   <varray name="positions" >
    <v>       0.00000000       0.00000000       0.00000000 </v>
    <v>       0.00000000       0.00000000       0.50000000 </v>
    <v>       0.00000000       0.50000000       0.00000000 </v>
    <v>       0.00000000       0.50000000       0.50000000 </v>
    <v>       0.50000000       0.00000000       0.00000000 </v>
    <v>       0.50000000       0.00000000       0.50000000 </v>
    <v>       0.50000000       0.50000000       0.00000000 </v>
    <v>       0.50000000       0.50000000       0.50000000 </v>
    <v>       0.24821937       0.25178063       0.25178063 </v>
    <v>       0.25000000       0.25000000       0.75000000 </v>
    <v>       0.25000000       0.75000000       0.25000000 </v>
    <v>       0.25000000       0.75000000       0.75000000 </v>
    <v>       0.75000000       0.25000000       0.25000000 </v>
    <v>       0.75000000       0.25000000       0.75000000 </v>
    <v>       0.75000000       0.75000000       0.25000000 </v>
    <v>       0.75000000       0.75000000       0.75000000 </v>
   </varray>
  </structure>
  <varray name="forces" >
   <v>      -0.00223160       0.00000000       0.00000000 </v>
   <v>       0.01186601       0.00000000       0.00003206 </v>
   <v>       0.01186601       0.00003206       0.00000000 </v>
   <v>       0.01829028       0.00000000       0.00000000 </v>
   <v>       0.01370230       0.00000000       0.00000000 </v>
   <v>       0.01186601      -0.00003206       0.00000000 </v>
   <v>       0.01186601       0.00000000      -0.00003206 </v>
   <v>      -0.00223160       0.00000000       0.00000000 </v>
   <v>      -0.15444476       0.00000000       0.00000000 </v>
   <v>       0.02138795       0.02682871       0.00000000 </v>
   <v>       0.02138795       0.00000000       0.02682871 </v>
   <v>      -0.00415307       0.00000000       0.00000000 </v>
   <v>      -0.00415307       0.00000000       0.00000000 </v>
   <v>       0.02138795       0.00000000      -0.02682871 </v>
   <v>       0.02138795      -0.02682871       0.00000000 </v>
   <v>       0.00220568       0.00000000       0.00000000 </v>
  </varray>
  <energy>
   <i name="e_fr_energy">   -106.50511434 </i>
   <i name="e_wo_entrp">   -106.50511434 </i>
   <i name="e_0_energy">      0.00000000 </i>
  </energy>
  <kpoints>
   <generation param="Gamma">
    <v type="int" name="divisions">       3        3        3 </v>
    <v name="usershift">      0.00000000       0.00000000       0.00000000 </v>
    <v name="genvec1">      0.33333333       0.00000000       0.00000000 </v>
    <v name="genvec2">      0.00000000       0.33333333       0.00000000 </v>
    <v name="genvec3">      0.00000000       0.00000000       0.33333333 </v>
    <v name="shift">      0.00000000       0.00000000       0.00000000 </v>
   </generation>
   <varray name="kpointlist" >
    <v>       0.00000000       0.00000000       0.00000000 </v>
    <v>       0.33333333       0.00000000       0.00000000 </v>
    <v>       0.33333333       0.33333333       0.00000000 </v>
    <v>      -0.33333333       0.33333333       0.00000000 </v>
    <v>       0.00000000       0.33333333       0.33333333 </v>
    <v>      -0.33333333       0.33333333       0.33333333 </v>
   </varray>
   <varray name="weights" >
    <v>       0.03703704 </v>
    <v>       0.29629630 </v>
    <v>       0.14814815 </v>
    <v>       0.29629630 </v>
    <v>       0.07407407 </v>
    <v>       0.14814815 </v>
   </varray>
   <varray name="tetrahedronlist"  type="int" >
    <v type="int" >       16        1        2        2        3 </v>
    <v type="int" >        8        1        2        2        5 </v>
    <v type="int" >       16        2        3        4        6 </v>
    <v type="int" >       16        2        2        4        6 </v>
    <v type="int" >        8        2        2        3        6 </v>
    <v type="int" >        8        2        2        4        5 </v>
    <v type="int" >       16        2        4        5        6 </v>
    <v type="int" >        8        2        2        4        4 </v>
    <v type="int" >       16        2        3        4        4 </v>
    <v type="int" >        8        2        2        3        4 </v>
    <v type="int" >        8        3        3        4        4 </v>
    <v type="int" >        8        3        4        4        6 </v>
    <v type="int" >        8        3        4        4        4 </v>
    <v type="int" >        4        4        4        6        6 </v>
    <v type="int" >        8        4        5        6        6 </v>
    <v type="int" >        2        4        4        4        4 </v>
    <v type="int" >        4        5        5        6        6 </v>
   </varray>
   <i name="volumeweight">      0.00617284 </i>
  </kpoints>
  <time name="totalsc">    7.89    7.90</time>
 </calculation>
 <calculation>
  <scstep>
   <time name="dav">    0.85    0.85</time>
   <time name="total">    0.96    0.96</time>
   <energy>
    <i name="alphaZ">     33.29328806 </i>
    <i name="ewald">  -2865.55668047 </i>
    <i name="hartreedc">  -1111.82594294 </i>
    <i name="XCdc">    178.34922115 </i>
    <i name="pawpsdc">   2535.01206173 </i>
    <i name="pawaedc">  -2465.95057891 </i>
    <i name="eentropy">      0.00000000 </i>
    <i name="bandstr">    -45.96867171 </i>
    <i name="atom">   3636.14291937 </i>
    <i name="e_fr_energy">   -106.50438373 </i>
    <i name="e_wo_entrp">   -106.50438373 </i>
    <i name="e_0_energy">   -106.50438373 </i>
   </energy>
  </scstep>
  <scstep>
   <time name="dav">    0.99    0.99</time>
   <time name="total">    1.10    1.10</time>
   <energy>
    <i name="e_fr_energy">   -106.50604569 </i>
    <i name="e_wo_entrp">   -106.50604569 </i>
    <i name="e_0_energy">   -106.50604569 </i>
   </energy>
  </scstep>
  <scstep>
   <time name="dav">    0.98    0.98</time>
   <time name="total">    1.09    1.09</time>
   <energy>
    <i name="e_fr_energy">   -106.50513237 </i>
    <i name="e_wo_entrp">   -106.50513237 </i>
    <i name="e_0_energy">   -106.50513237 </i>
   </energy>
  </scstep>
  <scstep>
   <time name="dav">    0.99    0.99</time>
   <time name="total">    1.10    1.10</time>
   <energy>
    <i name="e_fr_energy">   -106.50511835 </i>
    <i name="e_wo_entrp">   -106.50511835 </i>
    <i name="e_0_energy">   -106.50511835 </i>
   </energy>
  </scstep>
  <scstep>
   <time name="dav">    0.96    0.96</time>
   <time name="total">    1.07    1.07</time>
   <energy>
    <i name="e_fr_energy">   -106.50511566 </i>
    <i name="e_wo_entrp">   -106.50511566 </i>
    <i name="e_0_energy">   -106.50511566 </i>
   </energy>
  </scstep>
  <scstep>
   <time name="dav">    0.80    0.80</time>
   <time name="total">    0.91    0.91</time>
   <energy>
    <i name="e_fr_energy">   -106.50511454 </i>
    <i name="e_wo_entrp">   -106.50511454 </i>
    <i name="e_0_energy">   -106.50511454 </i>
   </energy>
  </scstep>
  <scstep>
   <time name="dav">    0.70    0.70</time>
   <time name="total">    0.73    0.73</time>
   <energy>
    <i name="alphaZ">     33.29328806 </i>
    <i name="ewald">  -2865.55668047 </i>
    <i name="hartreedc">  -1111.85174129 </i>
    <i name="XCdc">    178.35061954 </i>
    <i name="pawpsdc">   2535.01243276 </i>
    <i name="pawaedc">  -2465.95096187 </i>
    <i name="eentropy">      0.00000000 </i>
    <i name="bandstr">    -45.94499036 </i>
    <i name="atom">   3636.14291937 </i>
    <i name="e_fr_energy">   -106.50511427 </i>
    <i name="e_wo_entrp">   -106.50511427 </i>
    <i name="e_0_energy">   -106.50511427 </i>
   </energy>
  </scstep>
  <structure>
   <crystal>
    <varray name="basis" >
     <v>       0.00000000       4.21200000       4.21200000 </v>
     <v>       4.21200000       0.00000000       4.21200000 </v>
     <v>       4.21200000       4.21200000       0.00000000 </v>
    </varray>
    <i name="volume">    149.44971226 </i>
    <varray name="rec_basis" >
     <v>      -0.11870845       0.11870845       0.11870845 </v>
     <v>       0.11870845      -0.11870845       0.11870845 </v>
     <v>       0.11870845       0.11870845      -0.11870845 </v>
    </varray>
   </crystal>
   <varray name="positions" >
    <v>       0.00000000       0.00000000       0.00000000 </v>
    <v>       0.00000000       0.00000000       0.50000000 </v>
    <v>       0.00000000       0.50000000       0.00000000 </v>
    <v>       0.00000000       0.50000000       0.50000000 </v>
    <v>       0.50000000       0.00000000       0.00000000 </v>
    <v>       0.50000000       0.00000000       0.50000000 </v>
    <v>       0.50000000       0.50000000       0.00000000 </v>
    <v>       0.50000000       0.50000000       0.50000000 </v>
    <v>       0.25178063       0.24821937       0.24821937 </v>
    <v>       0.25000000       0.25000000       0.75000000 </v>
    <v>       0.25000000       0.75000000       0.25000000 </v>
    <v>       0.25000000       0.75000000       0.75000000 </v>
    <v>       0.75000000       0.25000000       0.25000000 </v>
    <v>       0.75000000       0.25000000       0.75000000 </v>
    <v>       0.75000000       0.75000000       0.25000000 </v>
    <v>       0.75000000       0.75000000       0.75000000 </v>
   </varray>
  </structure>
  <varray name="forces" >
   <v>       0.00231616       0.00000000       0.00000000 </v>
   <v>      -0.01179501       0.00000000       0.00004444 </v>
   <v>      -0.01179501       0.00004444       0.00000000 </v>
   <v>      -0.01368279       0.00000000       0.00000000 </v>
   <v>      -0.01824929       0.00000000       0.00000000 </v>
   <v>      -0.01179501      -0.00004444       0.00000000 </v>
   <v>      -0.01179501       0.00000000      -0.00004444 </v>
   <v>       0.00231616       0.00000000       0.00000000 </v>
   <v>       0.15496087       0.00000000       0.00000000 </v>
   <v>      -0.02148454      -0.02700403       0.00000000 </v>
   <v>      -0.02148454       0.00000000      -0.02700403 </v>
   <v>       0.00381023       0.00000000       0.00000000 </v>
   <v>       0.00381023       0.00000000       0.00000000 </v>
   <v>      -0.02148454       0.00000000       0.02700403 </v>
   <v>      -0.02148454       0.02700403       0.00000000 </v>
   <v>      -0.00216334       0.00000000       0.00000000 </v>
  </varray>
  <energy>
   <i name="e_fr_energy">   -106.50511427 </i>
   <i name="e_wo_entrp">   -106.50511427 </i>
   <i name="e_0_energy">      0.00000000 </i>
  </energy>
  <dynmat>
   <varray name="hessian" >
    <v>      -0.45029806       0.00000000       0.00000000       0.05187352       0.13285854       0.00000000       0.05187352       0.00000000       0.13285854      -0.01554868       0.00000000       0.00000000      -0.01554868       0.00000000       0.00000000       0.05187352       0.00000000      -0.13285854       0.05187352      -0.13285854       0.00000000       0.06984852       0.00000000       0.00000000      -0.00762501       0.00000000       0.00000000       0.03996602       0.00000000       0.00000000       0.03996602       0.00000000       0.00000000       0.05373157       0.00000000       0.00000000       0.05373157       0.00000000       0.00000000       0.03996602       0.00000000       0.00000000       0.03996602       0.00000000       0.00000000      -0.00762501       0.00000000       0.00000000 </v>
    <v>       0.00000000      -0.45029806       0.00000000       0.13285854       0.05187352       0.00000000       0.00000000      -0.01554868       0.00000000       0.00000000       0.05187352      -0.13285854       0.00000000       0.05187352       0.13285854       0.00000000      -0.01554868       0.00000000      -0.13285854       0.05187352       0.00000000       0.00000000       0.06984852       0.00000000       0.00000000      -0.00762501       0.00000000       0.00000000       0.03996602       0.00000000       0.00000000       0.05373157       0.00000000       0.00000000       0.03996602       0.00000000       0.00000000       0.03996602       0.00000000       0.00000000       0.05373157       0.00000000       0.00000000       0.03996602       0.00000000       0.00000000      -0.00762501       0.00000000 </v>
    <v>       0.00000000       0.00000000      -0.45029806       0.00000000       0.00000000      -0.01554868       0.13285854       0.00000000       0.05187352       0.00000000      -0.13285854       0.05187352       0.00000000       0.13285854       0.05187352      -0.13285854       0.00000000       0.05187352       0.00000000       0.00000000      -0.01554868       0.00000000       0.00000000       0.06984852       0.00000000       0.00000000      -0.00762501       0.00000000       0.00000000       0.05373157       0.00000000       0.00000000       0.03996602       0.00000000       0.00000000       0.03996602       0.00000000       0.00000000       0.03996602       0.00000000       0.00000000       0.03996602       0.00000000       0.00000000       0.05373157       0.00000000       0.00000000      -0.00762501 </v>
    <v>       0.05187352       0.13285854       0.00000000      -0.45029806       0.00000000       0.00000000      -0.01554868       0.00000000       0.00000000       0.05187352       0.00000000       0.13285854       0.05187352       0.00000000      -0.13285854      -0.01554868       0.00000000       0.00000000       0.06984852       0.00000000       0.00000000       0.05187352      -0.13285854       0.00000000       0.03996602       0.00000000       0.00000000      -0.00762501       0.00000000       0.00000000       0.05373157       0.00000000       0.00000000       0.03996602       0.00000000       0.00000000       0.03996602       0.00000000       0.00000000       0.05373157       0.00000000       0.00000000      -0.00762501       0.00000000       0.00000000       0.03996602       0.00000000       0.00000000 </v>
    <v>       0.13285854       0.05187352       0.00000000       0.00000000      -0.45029806       0.00000000       0.00000000       0.05187352      -0.13285854       0.00000000      -0.01554868       0.00000000       0.00000000      -0.01554868       0.00000000       0.00000000       0.05187352       0.13285854       0.00000000       0.06984852       0.00000000      -0.13285854       0.05187352       0.00000000       0.00000000       0.03996602       0.00000000       0.00000000      -0.00762501       0.00000000       0.00000000       0.03996602       0.00000000       0.00000000       0.05373157       0.00000000       0.00000000       0.05373157       0.00000000       0.00000000       0.03996602       0.00000000       0.00000000      -0.00762501       0.00000000       0.00000000       0.03996602       0.00000000 </v>
    <v>       0.00000000       0.00000000      -0.01554868       0.00000000       0.00000000      -0.45029806       0.00000000      -0.13285854       0.05187352       0.13285854       0.00000000       0.05187352      -0.13285854       0.00000000       0.05187352       0.00000000       0.13285854       0.05187352       0.00000000       0.00000000       0.06984852       0.00000000       0.00000000      -0.01554868       0.00000000       0.00000000       0.05373157       0.00000000       0.00000000      -0.00762501       0.00000000       0.00000000       0.03996602       0.00000000       0.00000000       0.03996602       0.00000000       0.00000000       0.03996602       0.00000000       0.00000000       0.03996602       0.00000000       0.00000000      -0.00762501       0.00000000       0.00000000       0.05373157 </v>
    <v>       0.05187352       0.00000000       0.13285854      -0.01554868       0.00000000       0.00000000      -0.45029806       0.00000000       0.00000000       0.05187352       0.13285854       0.00000000       0.05187352      -0.13285854       0.00000000       0.06984852       0.00000000       0.00000000      -0.01554868       0.00000000       0.00000000       0.05187352       0.00000000      -0.13285854       0.03996602       0.00000000       0.00000000       0.05373157       0.00000000       0.00000000      -0.00762501       0.00000000       0.00000000       0.03996602       0.00000000       0.00000000       0.03996602       0.00000000       0.00000000      -0.00762501       0.00000000       0.00000000       0.05373157       0.00000000       0.00000000       0.03996602       0.00000000       0.00000000 </v>
    <v>       0.00000000      -0.01554868       0.00000000       0.00000000       0.05187352      -0.13285854       0.00000000      -0.45029806       0.00000000       0.13285854       0.05187352       0.00000000      -0.13285854       0.05187352       0.00000000       0.00000000       0.06984852       0.00000000       0.00000000       0.05187352       0.13285854       0.00000000      -0.01554868       0.00000000       0.00000000       0.05373157       0.00000000       0.00000000       0.03996602       0.00000000       0.00000000      -0.00762501       0.00000000       0.00000000       0.03996602       0.00000000       0.00000000       0.03996602       0.00000000       0.00000000      -0.00762501       0.00000000       0.00000000       0.03996602       0.00000000       0.00000000       0.05373157       0.00000000 </v>
    <v>       0.13285854       0.00000000       0.05187352       0.00000000      -0.13285854       0.05187352       0.00000000       0.00000000      -0.45029806       0.00000000       0.00000000      -0.01554868       0.00000000       0.00000000      -0.01554868       0.00000000       0.00000000       0.06984852       0.00000000       0.13285854       0.05187352      -0.13285854       0.00000000       0.05187352       0.00000000       0.00000000       0.03996602       0.00000000       0.00000000       0.03996602       0.00000000       0.00000000      -0.00762501       0.00000000       0.00000000       0.05373157       0.00000000       0.00000000       0.05373157       0.00000000       0.00000000      -0.00762501       0.00000000       0.00000000       0.03996602       0.00000000       0.00000000       0.03996602 </v>
    <v>      -0.01554868       0.00000000       0.00000000       0.05187352       0.00000000       0.13285854       0.05187352       0.13285854       0.00000000      -0.45029806       0.00000000       0.00000000       0.06984852       0.00000000       0.00000000       0.05187352      -0.13285854       0.00000000       0.05187352       0.00000000      -0.13285854      -0.01554868       0.00000000       0.00000000       0.05373157       0.00000000       0.00000000       0.03996602       0.00000000       0.00000000       0.03996602       0.00000000       0.00000000      -0.00762501       0.00000000       0.00000000      -0.00762501       0.00000000       0.00000000       0.03996602       0.00000000       0.00000000       0.03996602       0.00000000       0.00000000       0.05373157       0.00000000       0.00000000 </v>
    <v>       0.00000000       0.05187352      -0.13285854       0.00000000      -0.01554868       0.00000000       0.13285854       0.05187352       0.00000000       0.00000000      -0.45029806       0.00000000       0.00000000       0.06984852       0.00000000      -0.13285854       0.05187352       0.00000000       0.00000000      -0.01554868       0.00000000       0.00000000       0.05187352       0.13285854       0.00000000       0.03996602       0.00000000       0.00000000       0.05373157       0.00000000       0.00000000       0.03996602       0.00000000       0.00000000      -0.00762501       0.00000000       0.00000000      -0.00762501       0.00000000       0.00000000       0.03996602       0.00000000       0.00000000       0.05373157       0.00000000       0.00000000       0.03996602       0.00000000 </v>
    <v>       0.00000000      -0.13285854       0.05187352       0.13285854       0.00000000       0.05187352       0.00000000       0.00000000      -0.01554868       0.00000000       0.00000000      -0.45029806       0.00000000       0.00000000       0.06984852       0.00000000       0.00000000      -0.01554868      -0.13285854       0.00000000       0.05187352       0.00000000       0.13285854       0.05187352       0.00000000       0.00000000       0.03996602       0.00000000       0.00000000       0.03996602       0.00000000       0.00000000       0.05373157       0.00000000       0.00000000      -0.00762501       0.00000000       0.00000000      -0.00762501       0.00000000       0.00000000       0.05373157       0.00000000       0.00000000       0.03996602       0.00000000       0.00000000       0.03996602 </v>
    <v>      -0.01554868       0.00000000       0.00000000       0.05187352       0.00000000      -0.13285854       0.05187352      -0.13285854       0.00000000       0.06984852       0.00000000       0.00000000      -0.45029806       0.00000000       0.00000000       0.05187352       0.13285854       0.00000000       0.05187352       0.00000000       0.13285854      -0.01554868       0.00000000       0.00000000       0.05373157       0.00000000       0.00000000       0.03996602       0.00000000       0.00000000       0.03996602       0.00000000       0.00000000      -0.00762501       0.00000000       0.00000000      -0.00762501       0.00000000       0.00000000       0.03996602       0.00000000       0.00000000       0.03996602       0.00000000       0.00000000       0.05373157       0.00000000       0.00000000 </v>
    <v>       0.00000000       0.05187352       0.13285854       0.00000000      -0.01554868       0.00000000      -0.13285854       0.05187352       0.00000000       0.00000000       0.06984852       0.00000000       0.00000000      -0.45029806       0.00000000       0.13285854       0.05187352       0.00000000       0.00000000      -0.01554868       0.00000000       0.00000000       0.05187352      -0.13285854       0.00000000       0.03996602       0.00000000       0.00000000       0.05373157       0.00000000       0.00000000       0.03996602       0.00000000       0.00000000      -0.00762501       0.00000000       0.00000000      -0.00762501       0.00000000       0.00000000       0.03996602       0.00000000       0.00000000       0.05373157       0.00000000       0.00000000       0.03996602       0.00000000 </v>
    <v>       0.00000000       0.13285854       0.05187352      -0.13285854       0.00000000       0.05187352       0.00000000       0.00000000      -0.01554868       0.00000000       0.00000000       0.06984852       0.00000000       0.00000000      -0.45029806       0.00000000       0.00000000      -0.01554868       0.13285854       0.00000000       0.05187352       0.00000000      -0.13285854       0.05187352       0.00000000       0.00000000       0.03996602       0.00000000       0.00000000       0.03996602       0.00000000       0.00000000       0.05373157       0.00000000       0.00000000      -0.00762501       0.00000000       0.00000000      -0.00762501       0.00000000       0.00000000       0.05373157       0.00000000       0.00000000       0.03996602       0.00000000       0.00000000       0.03996602 </v>
    <v>       0.05187352       0.00000000      -0.13285854      -0.01554868       0.00000000       0.00000000       0.06984852       0.00000000       0.00000000       0.05187352      -0.13285854       0.00000000       0.05187352       0.13285854       0.00000000      -0.45029806       0.00000000       0.00000000      -0.01554868       0.00000000       0.00000000       0.05187352       0.00000000       0.13285854       0.03996602       0.00000000       0.00000000       0.05373157       0.00000000       0.00000000      -0.00762501       0.00000000       0.00000000       0.03996602       0.00000000       0.00000000       0.03996602       0.00000000       0.00000000      -0.00762501       0.00000000       0.00000000       0.05373157       0.00000000       0.00000000       0.03996602       0.00000000       0.00000000 </v>
    <v>       0.00000000      -0.01554868       0.00000000       0.00000000       0.05187352       0.13285854       0.00000000       0.06984852       0.00000000      -0.13285854       0.05187352       0.00000000       0.13285854       0.05187352       0.00000000       0.00000000      -0.45029806       0.00000000       0.00000000       0.05187352      -0.13285854       0.00000000      -0.01554868       0.00000000       0.00000000       0.05373157       0.00000000       0.00000000       0.03996602       0.00000000       0.00000000      -0.00762501       0.00000000       0.00000000       0.03996602       0.00000000       0.00000000       0.03996602       0.00000000       0.00000000      -0.00762501       0.00000000       0.00000000       0.03996602       0.00000000       0.00000000       0.05373157       0.00000000 </v>
    <v>      -0.13285854       0.00000000       0.05187352       0.00000000       0.13285854       0.05187352       0.00000000       0.00000000       0.06984852       0.00000000       0.00000000      -0.01554868       0.00000000       0.00000000      -0.01554868       0.00000000       0.00000000      -0.45029806       0.00000000      -0.13285854       0.05187352       0.13285854       0.00000000       0.05187352       0.00000000       0.00000000       0.03996602       0.00000000       0.00000000       0.03996602       0.00000000       0.00000000      -0.00762501       0.00000000       0.00000000       0.05373157       0.00000000       0.00000000       0.05373157       0.00000000       0.00000000      -0.00762501       0.00000000       0.00000000       0.03996602       0.00000000       0.00000000       0.03996602 </v>
    <v>       0.05187352      -0.13285854       0.00000000       0.06984852       0.00000000       0.00000000      -0.01554868       0.00000000       0.00000000       0.05187352       0.00000000      -0.13285854       0.05187352       0.00000000       0.13285854      -0.01554868       0.00000000       0.00000000      -0.45029806       0.00000000       0.00000000       0.05187352       0.13285854       0.00000000       0.03996602       0.00000000       0.00000000      -0.00762501       0.00000000       0.00000000       0.05373157       0.00000000       0.00000000       0.03996602       0.00000000       0.00000000       0.03996602       0.00000000       0.00000000       0.05373157       0.00000000       0.00000000      -0.00762501       0.00000000       0.00000000       0.03996602       0.00000000       0.00000000 </v>
    <v>      -0.13285854       0.05187352       0.00000000       0.00000000       0.06984852       0.00000000       0.00000000       0.05187352       0.13285854       0.00000000      -0.01554868       0.00000000       0.00000000      -0.01554868       0.00000000       0.00000000       0.05187352      -0.13285854       0.00000000      -0.45029806       0.00000000       0.13285854       0.05187352       0.00000000       0.00000000       0.03996602       0.00000000       0.00000000      -0.00762501       0.00000000       0.00000000       0.03996602       0.00000000       0.00000000       0.05373157       0.00000000       0.00000000       0.05373157       0.00000000       0.00000000       0.03996602       0.00000000       0.00000000      -0.00762501       0.00000000       0.00000000       0.03996602       0.00000000 </v>
    <v>       0.00000000       0.00000000      -0.01554868       0.00000000       0.00000000       0.06984852       0.00000000       0.13285854       0.05187352      -0.13285854       0.00000000       0.05187352       0.13285854       0.00000000       0.05187352       0.00000000      -0.13285854       0.05187352       0.00000000       0.00000000      -0.45029806       0.00000000       0.00000000      -0.01554868       0.00000000       0.00000000       0.05373157       0.00000000       0.00000000      -0.00762501       0.00000000       0.00000000       0.03996602       0.00000000       0.00000000       0.03996602       0.00000000       0.00000000       0.03996602       0.00000000       0.00000000       0.03996602       0.00000000       0.00000000      -0.00762501       0.00000000       0.00000000       0.05373157 </v>
    <v>       0.06984852       0.00000000       0.00000000       0.05187352      -0.13285854       0.00000000       0.05187352       0.00000000      -0.13285854      -0.01554868       0.00000000       0.00000000      -0.01554868       0.00000000       0.00000000       0.05187352       0.00000000       0.13285854       0.05187352       0.13285854       0.00000000      -0.45029806       0.00000000       0.00000000      -0.00762501       0.00000000       0.00000000       0.03996602       0.00000000       0.00000000       0.03996602       0.00000000       0.00000000       0.05373157       0.00000000       0.00000000       0.05373157       0.00000000       0.00000000       0.03996602       0.00000000       0.00000000       0.03996602       0.00000000       0.00000000      -0.00762501       0.00000000       0.00000000 </v>
    <v>       0.00000000       0.06984852       0.00000000      -0.13285854       0.05187352       0.00000000       0.00000000      -0.01554868       0.00000000       0.00000000       0.05187352       0.13285854       0.00000000       0.05187352      -0.13285854       0.00000000      -0.01554868       0.00000000       0.13285854       0.05187352       0.00000000       0.00000000      -0.45029806       0.00000000       0.00000000      -0.00762501       0.00000000       0.00000000       0.03996602       0.00000000       0.00000000       0.05373157       0.00000000       0.00000000       0.03996602       0.00000000       0.00000000       0.03996602       0.00000000       0.00000000       0.05373157       0.00000000       0.00000000       0.03996602       0.00000000       0.00000000      -0.00762501       0.00000000 </v>
    <v>       0.00000000       0.00000000       0.06984852       0.00000000       0.00000000      -0.01554868      -0.13285854       0.00000000       0.05187352       0.00000000       0.13285854       0.05187352       0.00000000      -0.13285854       0.05187352       0.13285854       0.00000000       0.05187352       0.00000000       0.00000000      -0.01554868       0.00000000       0.00000000      -0.45029806       0.00000000       0.00000000      -0.00762501       0.00000000       0.00000000       0.05373157       0.00000000       0.00000000       0.03996602       0.00000000       0.00000000       0.03996602       0.00000000       0.00000000       0.03996602       0.00000000       0.00000000       0.03996602       0.00000000       0.00000000       0.05373157       0.00000000       0.00000000      -0.00762501 </v>
    <v>      -0.00762501       0.00000000       0.00000000       0.03996602       0.00000000       0.00000000       0.03996602       0.00000000       0.00000000       0.05373157       0.00000000       0.00000000       0.05373157       0.00000000       0.00000000       0.03996602       0.00000000       0.00000000       0.03996602       0.00000000       0.00000000      -0.00762501       0.00000000       0.00000000      -0.64459508       0.00000000       0.00000000       0.08931769       0.11215155       0.00000000       0.08931769       0.00000000       0.11215155      -0.01659021       0.00000000       0.00000000      -0.01659021       0.00000000       0.00000000       0.08931769       0.00000000      -0.11215155       0.08931769      -0.11215155       0.00000000       0.00910213       0.00000000       0.00000000 </v>
    <v>       0.00000000      -0.00762501       0.00000000       0.00000000       0.03996602       0.00000000       0.00000000       0.05373157       0.00000000       0.00000000       0.03996602       0.00000000       0.00000000       0.03996602       0.00000000       0.00000000       0.05373157       0.00000000       0.00000000       0.03996602       0.00000000       0.00000000      -0.00762501       0.00000000       0.00000000      -0.64459508       0.00000000       0.11215155       0.08931769       0.00000000       0.00000000      -0.01659021       0.00000000       0.00000000       0.08931769      -0.11215155       0.00000000       0.08931769       0.11215155       0.00000000      -0.01659021       0.00000000      -0.11215155       0.08931769       0.00000000       0.00000000       0.00910213       0.00000000 </v>
    <v>       0.00000000       0.00000000      -0.00762501       0.00000000       0.00000000       0.05373157       0.00000000       0.00000000       0.03996602       0.00000000       0.00000000       0.03996602       0.00000000       0.00000000       0.03996602       0.00000000       0.00000000       0.03996602       0.00000000       0.00000000       0.05373157       0.00000000       0.00000000      -0.00762501       0.00000000       0.00000000      -0.64459508       0.00000000       0.00000000      -0.01659021       0.11215155       0.00000000       0.08931769       0.00000000      -0.11215155       0.08931769       0.00000000       0.11215155       0.08931769      -0.11215155       0.00000000       0.08931769       0.00000000       0.00000000      -0.01659021       0.00000000       0.00000000       0.00910213 </v>
    <v>       0.03996602       0.00000000       0.00000000      -0.00762501       0.00000000       0.00000000       0.05373157       0.00000000       0.00000000       0.03996602       0.00000000       0.00000000       0.03996602       0.00000000       0.00000000       0.05373157       0.00000000       0.00000000      -0.00762501       0.00000000       0.00000000       0.03996602       0.00000000       0.00000000       0.08931769       0.11215155       0.00000000      -0.64459508       0.00000000       0.00000000      -0.01659021       0.00000000       0.00000000       0.08931769       0.00000000       0.11215155       0.08931769       0.00000000      -0.11215155      -0.01659021       0.00000000       0.00000000       0.00910213       0.00000000       0.00000000       0.08931769      -0.11215155       0.00000000 </v>
[...]
       <r>    1.0983    1.0000 </r>
       <r>    1.2355    1.0000 </r>
       <r>    2.4339    1.0000 </r>
       <r>    2.4340    1.0000 </r>
       <r>    3.0126    1.0000 </r>
       <r>    3.0129    1.0000 </r>
       <r>    3.1143    1.0000 </r>
       <r>    3.1301    1.0000 </r>
       <r>    3.1368    1.0000 </r>
       <r>    3.1388    1.0000 </r>
       <r>    3.1474    1.0000 </r>
       <r>    3.6419    1.0000 </r>
       <r>    3.6420    1.0000 </r>
       <r>    4.0498    1.0000 </r>
       <r>    4.0535    1.0000 </r>
       <r>    4.0537    1.0000 </r>
       <r>    4.0573    1.0000 </r>
       <r>    4.3196    1.0000 </r>
       <r>    4.3197    1.0000 </r>
       <r>   11.2628    0.0000 </r>
       <r>   13.5325    0.0000 </r>
       <r>   13.5337    0.0000 </r>
       <r>   13.5575    0.0000 </r>
       <r>   13.5585    0.0000 </r>
       <r>   13.8492    0.0000 </r>
       <r>   14.5411    0.0000 </r>
       <r>   15.0794    0.0000 </r>
       <r>   15.0800    0.0000 </r>
       <r>   15.8566    0.0000 </r>
       <r>   15.8581    0.0000 </r>
       <r>   16.6274    0.0000 </r>
       <r>   16.6441    0.0000 </r>
       <r>   16.6465    0.0000 </r>
       <r>   16.6645    0.0000 </r>
       <r>   17.0098    0.0000 </r>
      </set>
      <set comment="kpoint 4">
       <r>  -11.5704    1.0000 </r>
       <r>  -11.3663    1.0000 </r>
       <r>  -11.3662    1.0000 </r>
       <r>  -10.9285    1.0000 </r>
       <r>  -10.9242    1.0000 </r>
       <r>  -10.6916    1.0000 </r>
       <r>  -10.6903    1.0000 </r>
       <r>  -10.6890    1.0000 </r>
       <r>    1.0644    1.0000 </r>
       <r>    1.0648    1.0000 </r>
       <r>    1.1224    1.0000 </r>
       <r>    1.1302    1.0000 </r>
       <r>    1.4333    1.0000 </r>
       <r>    1.5917    1.0000 </r>
       <r>    1.5925    1.0000 </r>
       <r>    1.5986    1.0000 </r>
       <r>    2.0608    1.0000 </r>
       <r>    2.2052    1.0000 </r>
       <r>    2.2054    1.0000 </r>
       <r>    2.8259    1.0000 </r>
       <r>    2.8358    1.0000 </r>
       <r>    3.4258    1.0000 </r>
       <r>    3.4261    1.0000 </r>
       <r>    3.6801    1.0000 </r>
       <r>    3.6836    1.0000 </r>
       <r>    3.6995    1.0000 </r>
       <r>    3.7615    1.0000 </r>
       <r>    3.8356    1.0000 </r>
       <r>    3.8357    1.0000 </r>
       <r>    3.9872    1.0000 </r>
       <r>    3.9874    1.0000 </r>
       <r>    4.3958    1.0000 </r>
       <r>   12.3005    0.0000 </r>
       <r>   12.8938    0.0000 </r>
       <r>   12.8942    0.0000 </r>
       <r>   14.5667    0.0000 </r>
       <r>   14.5772    0.0000 </r>
       <r>   14.8358    0.0000 </r>
       <r>   15.1127    0.0000 </r>
       <r>   15.1127    0.0000 </r>
       <r>   15.5879    0.0000 </r>
       <r>   15.6121    0.0000 </r>
       <r>   16.0547    0.0000 </r>
       <r>   16.0550    0.0000 </r>
       <r>   16.4831    0.0000 </r>
       <r>   16.4838    0.0000 </r>
       <r>   16.7194    0.0000 </r>
       <r>   16.7526    0.0000 </r>
      </set>
     </set>
    </set>
   </array>
  </eigenvalues>
  <separator name="orbital magnetization" >
   <v name="MAGDIPOLOUT">      0.00000000      0.00000000      0.00000000</v>
  </separator>
  <dos>
   <i name="efermi">      4.73170341 </i>
   <total>
    <array>
     <dimension dim="1">gridpoints</dimension>
     <dimension dim="2">spin</dimension>
     <field>energy</field>
     <field>total</field>
     <field>integrated</field>
     <set>
      <set comment="spin 1">
       <r>   -14.2807     0.0000     0.0000 </r>
       <r>   -14.1677     0.0000     0.0000 </r>
       <r>   -14.0547     0.0000     0.0000 </r>
       <r>   -13.9417     0.0000     0.0000 </r>
       <r>   -13.8287     0.0000     0.0000 </r>
       <r>   -13.7157     0.0000     0.0000 </r>
       <r>   -13.6027     0.0000     0.0000 </r>
       <r>   -13.4897     0.0000     0.0000 </r>
       <r>   -13.3767     0.0000     0.0000 </r>
       <r>   -13.2637     0.0000     0.0000 </r>
       <r>   -13.1507     0.0000     0.0000 </r>
       <r>   -13.0377     0.0000     0.0000 </r>
       <r>   -12.9247     0.0000     0.0000 </r>
       <r>   -12.8117     0.0000     0.0000 </r>
       <r>   -12.6987     0.0000     0.0000 </r>
       <r>   -12.5857     0.0000     0.0000 </r>
       <r>   -12.4727     0.0000     0.0000 </r>
       <r>   -12.3597     0.0000     0.0000 </r>
       <r>   -12.2467     0.0308     0.0003 </r>
       <r>   -12.1337     0.5754     0.0282 </r>
       <r>   -12.0207     1.7998     0.1560 </r>
       <r>   -11.9077     3.1463     0.4365 </r>
       <r>   -11.7947     4.9793     0.9091 </r>
       <r>   -11.6817     4.8636     1.4847 </r>
       <r>   -11.5687     0.0000     2.0000 </r>
       <r>   -11.4557     0.0000     2.0000 </r>
       <r>   -11.3427    20.9656     2.5075 </r>
       <r>   -11.2297    10.2503     4.0430 </r>
       <r>   -11.1167     6.0161     4.9539 </r>
       <r>   -11.0037     3.2580     5.4639 </r>
       <r>   -10.8907    39.7968     9.7041 </r>
       <r>   -10.7777     9.7286    10.7525 </r>
       <r>   -10.6647    39.7974    15.2402 </r>
       <r>   -10.5517     0.0000    16.0000 </r>
       <r>   -10.4387     0.0000    16.0000 </r>
       <r>   -10.3257     0.0000    16.0000 </r>
       <r>   -10.2127     0.0000    16.0000 </r>
       <r>   -10.0997     0.0000    16.0000 </r>
       <r>    -9.9867     0.0000    16.0000 </r>
       <r>    -9.8737     0.0000    16.0000 </r>
       <r>    -9.7607     0.0000    16.0000 </r>
       <r>    -9.6477     0.0000    16.0000 </r>
       <r>    -9.5347     0.0000    16.0000 </r>
       <r>    -9.4217     0.0000    16.0000 </r>
       <r>    -9.3087     0.0000    16.0000 </r>
       <r>    -9.1957     0.0000    16.0000 </r>
       <r>    -9.0827     0.0000    16.0000 </r>
       <r>    -8.9697     0.0000    16.0000 </r>
       <r>    -8.8567     0.0000    16.0000 </r>
       <r>    -8.7437     0.0000    16.0000 </r>
       <r>    -8.6307     0.0000    16.0000 </r>
       <r>    -8.5177     0.0000    16.0000 </r>
       <r>    -8.4047     0.0000    16.0000 </r>
       <r>    -8.2917     0.0000    16.0000 </r>
       <r>    -8.1787     0.0000    16.0000 </r>
       <r>    -8.0657     0.0000    16.0000 </r>
       <r>    -7.9527     0.0000    16.0000 </r>
       <r>    -7.8397     0.0000    16.0000 </r>
       <r>    -7.7267     0.0000    16.0000 </r>
       <r>    -7.6137     0.0000    16.0000 </r>
       <r>    -7.5007     0.0000    16.0000 </r>
       <r>    -7.3877     0.0000    16.0000 </r>
       <r>    -7.2747     0.0000    16.0000 </r>
       <r>    -7.1617     0.0000    16.0000 </r>
       <r>    -7.0487     0.0000    16.0000 </r>
       <r>    -6.9356     0.0000    16.0000 </r>
       <r>    -6.8226     0.0000    16.0000 </r>
       <r>    -6.7096     0.0000    16.0000 </r>
       <r>    -6.5966     0.0000    16.0000 </r>
       <r>    -6.4836     0.0000    16.0000 </r>
       <r>    -6.3706     0.0000    16.0000 </r>
       <r>    -6.2576     0.0000    16.0000 </r>
       <r>    -6.1446     0.0000    16.0000 </r>
       <r>    -6.0316     0.0000    16.0000 </r>
       <r>    -5.9186     0.0000    16.0000 </r>
       <r>    -5.8056     0.0000    16.0000 </r>
       <r>    -5.6926     0.0000    16.0000 </r>
       <r>    -5.5796     0.0000    16.0000 </r>
       <r>    -5.4666     0.0000    16.0000 </r>
       <r>    -5.3536     0.0000    16.0000 </r>
       <r>    -5.2406     0.0000    16.0000 </r>
       <r>    -5.1276     0.0000    16.0000 </r>
       <r>    -5.0146     0.0000    16.0000 </r>
       <r>    -4.9016     0.0000    16.0000 </r>
       <r>    -4.7886     0.0000    16.0000 </r>
       <r>    -4.6756     0.0000    16.0000 </r>
       <r>    -4.5626     0.0000    16.0000 </r>
       <r>    -4.4496     0.0000    16.0000 </r>
       <r>    -4.3366     0.0000    16.0000 </r>
       <r>    -4.2236     0.0000    16.0000 </r>
       <r>    -4.1106     0.0000    16.0000 </r>
       <r>    -3.9976     0.0000    16.0000 </r>
       <r>    -3.8846     0.0000    16.0000 </r>
       <r>    -3.7716     0.0000    16.0000 </r>
       <r>    -3.6586     0.0000    16.0000 </r>
       <r>    -3.5456     0.0000    16.0000 </r>
       <r>    -3.4326     0.0000    16.0000 </r>
       <r>    -3.3196     0.0000    16.0000 </r>
       <r>    -3.2066     0.0000    16.0000 </r>
       <r>    -3.0936     0.0000    16.0000 </r>
       <r>    -2.9806     0.0000    16.0000 </r>
       <r>    -2.8676     0.0000    16.0000 </r>
       <r>    -2.7546     0.0000    16.0000 </r>
       <r>    -2.6416     0.0000    16.0000 </r>
       <r>    -2.5286     0.0000    16.0000 </r>
       <r>    -2.4156     0.0000    16.0000 </r>
       <r>    -2.3026     0.0000    16.0000 </r>
       <r>    -2.1896     0.0000    16.0000 </r>
       <r>    -2.0766     0.0000    16.0000 </r>
       <r>    -1.9636     0.0000    16.0000 </r>
       <r>    -1.8506     0.0000    16.0000 </r>
       <r>    -1.7376     0.0000    16.0000 </r>
       <r>    -1.6246     0.0000    16.0000 </r>
       <r>    -1.5116     0.0000    16.0000 </r>
       <r>    -1.3986     0.0000    16.0000 </r>
       <r>    -1.2856     0.0000    16.0000 </r>
       <r>    -1.1726     0.0000    16.0000 </r>
       <r>    -1.0596     0.0000    16.0000 </r>
       <r>    -0.9466     0.0000    16.0000 </r>
       <r>    -0.8336     0.0000    16.0000 </r>
       <r>    -0.7206     0.0000    16.0000 </r>
       <r>    -0.6076     0.0000    16.0000 </r>
       <r>    -0.4946     0.0000    16.0000 </r>
       <r>    -0.3816     0.0000    16.0000 </r>
       <r>    -0.2686     0.0000    16.0000 </r>
       <r>    -0.1556     0.0000    16.0000 </r>
       <r>    -0.0426     0.0000    16.0000 </r>
       <r>     0.0704     0.0471    16.0008 </r>
       <r>     0.1834     0.5005    16.0272 </r>
       <r>     0.2964     1.4347    16.1320 </r>
       <r>     0.4094     2.8499    16.3696 </r>
       <r>     0.5224     4.9018    16.7981 </r>
       <r>     0.6354     7.4137    17.4889 </r>
       <r>     0.7484    10.7359    18.5060 </r>
       <r>     0.8614    19.0088    20.1345 </r>
       <r>     0.9744    23.4013    22.6257 </r>
       <r>     1.0874    14.4315    25.1476 </r>
       <r>     1.2004     9.4434    26.4784 </r>
       <r>     1.3134    10.6863    27.6292 </r>
       <r>     1.4264     9.5530    28.7979 </r>
       <r>     1.5394     5.4253    29.5943 </r>
       <r>     1.6524     1.2473    30.1364 </r>
       <r>     1.7654     1.5559    30.2958 </r>
       <r>     1.8784     1.7620    30.4842 </r>
       <r>     1.9914     1.8656    30.6901 </r>
       <r>     2.1044     4.6437    31.0889 </r>
       <r>     2.2174     7.4859    31.8223 </r>
       <r>     2.3304     8.6365    32.7461 </r>
       <r>     2.4434     8.4908    33.7228 </r>
       <r>     2.5564     8.2366    34.6732 </r>
       <r>     2.6694     7.4213    35.5632 </r>
       <r>     2.7824     6.0273    36.3292 </r>
       <r>     2.8954    13.6704    37.5785 </r>
       <r>     3.0084    13.5401    39.1621 </r>
       <r>     3.1214     9.8737    40.5059 </r>
       <r>     3.2344    16.6736    41.8475 </r>
       <r>     3.3474    18.1433    43.8780 </r>
       <r>     3.4604    14.5187    45.9435 </r>
       <r>     3.5734    16.8880    47.3569 </r>
       <r>     3.6864    19.5335    50.0935 </r>
       <r>     3.7994    18.6322    51.8317 </r>
       <r>     3.9124    25.2460    55.1634 </r>
       <r>     4.0254    25.1074    57.8874 </r>
       <r>     4.1384    15.1561    59.9368 </r>
       <r>     4.2514     4.9537    60.9103 </r>
       <r>     4.3645    13.6550    61.5787 </r>
       <r>     4.4775    10.5651    63.2482 </r>
       <r>     4.5905     2.2972    63.9052 </r>
       <r>     4.7035     0.0175    63.9999 </r>
       <r>     4.8165     0.0000    64.0000 </r>
       <r>     4.9295     0.0000    64.0000 </r>
       <r>     5.0425     0.0000    64.0000 </r>
       <r>     5.1555     0.0000    64.0000 </r>
       <r>     5.2685     0.0000    64.0000 </r>
       <r>     5.3815     0.0000    64.0000 </r>
       <r>     5.4945     0.0000    64.0000 </r>
       <r>     5.6075     0.0000    64.0000 </r>
       <r>     5.7205     0.0000    64.0000 </r>
       <r>     5.8335     0.0000    64.0000 </r>
       <r>     5.9465     0.0000    64.0000 </r>
       <r>     6.0595     0.0000    64.0000 </r>
       <r>     6.1725     0.0000    64.0000 </r>
       <r>     6.2855     0.0000    64.0000 </r>
       <r>     6.3985     0.0000    64.0000 </r>
       <r>     6.5115     0.0000    64.0000 </r>
       <r>     6.6245     0.0000    64.0000 </r>
       <r>     6.7375     0.0000    64.0000 </r>
       <r>     6.8505     0.0000    64.0000 </r>
       <r>     6.9635     0.0000    64.0000 </r>
       <r>     7.0765     0.0000    64.0000 </r>
       <r>     7.1895     0.0000    64.0000 </r>
       <r>     7.3025     0.0000    64.0000 </r>
       <r>     7.4155     0.0000    64.0000 </r>
       <r>     7.5285     0.0000    64.0000 </r>
       <r>     7.6415     0.0000    64.0000 </r>
       <r>     7.7545     0.0000    64.0000 </r>
       <r>     7.8675     0.0000    64.0000 </r>
       <r>     7.9805     0.0000    64.0000 </r>
       <r>     8.0935     0.0000    64.0000 </r>
       <r>     8.2065     0.0000    64.0000 </r>
       <r>     8.3195     0.0000    64.0000 </r>
       <r>     8.4325     0.0000    64.0000 </r>
       <r>     8.5455     0.0000    64.0000 </r>
       <r>     8.6585     0.0000    64.0000 </r>
       <r>     8.7715     0.0000    64.0000 </r>
       <r>     8.8845     0.0000    64.0000 </r>
       <r>     8.9975     0.0000    64.0000 </r>
       <r>     9.1105     0.0000    64.0000 </r>
       <r>     9.2235     0.0000    64.0000 </r>
       <r>     9.3365     0.0000    64.0000 </r>
       <r>     9.4495     0.0013    64.0000 </r>
       <r>     9.5625     0.0083    64.0005 </r>
       <r>     9.6755     0.0214    64.0021 </r>
       <r>     9.7885     0.0405    64.0056 </r>
       <r>     9.9015     0.0657    64.0115 </r>
       <r>    10.0145     0.0970    64.0207 </r>
       <r>    10.1275     0.1343    64.0337 </r>
       <r>    10.2405     0.1776    64.0512 </r>
       <r>    10.3535     0.2271    64.0740 </r>
       <r>    10.4665     0.2826    64.1028 </r>
       <r>    10.5795     0.3442    64.1381 </r>
       <r>    10.6925     0.4118    64.1808 </r>
       <r>    10.8055     0.4979    64.2316 </r>
       <r>    10.9185     0.6360    64.2957 </r>
       <r>    11.0315     0.7689    64.3751 </r>
       <r>    11.1445     0.8965    64.4692 </r>
       <r>    11.2575     1.0189    64.5775 </r>
       <r>    11.3705     1.2045    64.7034 </r>
       <r>    11.4835     1.3442    64.8478 </r>
       <r>    11.5965     1.4335    65.0053 </r>
       <r>    11.7095     1.4725    65.1699 </r>
       <r>    11.8225     1.4612    65.3362 </r>
       <r>    11.9355     1.3995    65.4983 </r>
       <r>    12.0485     1.2875    65.6506 </r>
       <r>    12.1615     1.1252    65.7874 </r>
       <r>    12.2745     1.2168    65.9067 </r>
       <r>    12.3875     1.3438    66.1029 </r>
       <r>    12.5005     1.7862    66.2839 </r>
       <r>    12.6135     2.0469    66.5012 </r>
       <r>    12.7265     2.2232    66.7433 </r>
       <r>    12.8395     2.3150    67.0005 </r>
       <r>    12.9525     5.3113    67.5805 </r>
       <r>    13.0655     5.5217    68.1948 </r>
       <r>    13.1785     5.4901    68.8193 </r>
       <r>    13.2915     5.2163    69.4265 </r>
       <r>    13.4045     4.7005    69.9891 </r>
       <r>    13.5175     3.9425    70.4797 </r>
       <r>    13.6305     2.3538    70.7540 </r>
       <r>    13.7435     3.2312    71.0685 </r>
       <r>    13.8565     4.2262    71.4885 </r>
       <r>    13.9695     5.2599    72.0262 </r>
       <r>    14.0825     6.1046    72.6701 </r>
       <r>    14.1955     6.7602    73.3988 </r>
       <r>    14.3085     7.3244    74.1915 </r>
       <r>    14.4215     8.1054    75.0700 </r>
       <r>    14.5345     8.2153    75.9981 </r>
       <r>    14.6475     6.7808    76.9546 </r>
       <r>    14.7605     6.6870    77.7225 </r>
       <r>    14.8735     5.4253    78.4869 </r>
       <r>    14.9865     5.5667    79.1107 </r>
       <r>    15.0995    20.8308    79.8918 </r>
       <r>    15.2125     3.2761    80.6200 </r>
       <r>    15.3255     6.7226    81.1464 </r>
       <r>    15.4385     9.9387    82.1279 </r>
       <r>    15.5515     8.8942    83.2321 </r>
       <r>    15.6645     7.3827    84.2675 </r>
       <r>    15.7776     3.9358    84.8917 </r>
       <r>    15.8906     3.2159    85.2373 </r>
       <r>    16.0036     4.5350    85.6927 </r>
       <r>    16.1166     2.1171    86.1876 </r>
       <r>    16.2296     2.8204    86.4706 </r>
       <r>    16.3426     3.0925    86.8088 </r>
       <r>    16.4556     2.9334    87.1533 </r>
       <r>    16.5686    19.9159    88.9094 </r>
       <r>    16.6816    17.6847    90.8110 </r>
       <r>    16.7946    16.3912    93.2778 </r>
       <r>    16.9076     6.8750    94.4365 </r>
       <r>    17.0206     3.5171    95.0154 </r>
       <r>    17.1336     2.3749    95.3352 </r>
       <r>    17.2466     2.0313    95.5840 </r>
       <r>    17.3596     1.6855    95.7941 </r>
       <r>    17.4726     0.9034    95.9557 </r>
       <r>    17.5856     0.0484    95.9995 </r>
       <r>    17.6986     0.0000    96.0000 </r>
       <r>    17.8116     0.0000    96.0000 </r>
       <r>    17.9246     0.0000    96.0000 </r>
       <r>    18.0376     0.0000    96.0000 </r>
       <r>    18.1506     0.0000    96.0000 </r>
       <r>    18.2636     0.0000    96.0000 </r>
       <r>    18.3766     0.0000    96.0000 </r>
       <r>    18.4896     0.0000    96.0000 </r>
       <r>    18.6026     0.0000    96.0000 </r>
       <r>    18.7156     0.0000    96.0000 </r>
       <r>    18.8286     0.0000    96.0000 </r>
       <r>    18.9416     0.0000    96.0000 </r>
       <r>    19.0546     0.0000    96.0000 </r>
       <r>    19.1676     0.0000    96.0000 </r>
       <r>    19.2806     0.0000    96.0000 </r>
       <r>    19.3936     0.0000    96.0000 </r>
       <r>    19.5066     0.0000    96.0000 </r>
       <r>    19.6196     0.0000    96.0000 </r>
      </set>
     </set>
    </array>
   </total>
  </dos>
 </calculation>
 <structure name="finalpos" >
  <crystal>
   <varray name="basis" >
    <v>       0.00000000       4.21200000       4.21200000 </v>
    <v>       4.21200000       0.00000000       4.21200000 </v>
    <v>       4.21200000       4.21200000       0.00000000 </v>
   </varray>
   <i name="volume">    149.44971226 </i>
   <varray name="rec_basis" >
    <v>      -0.11870845       0.11870845       0.11870845 </v>
    <v>       0.11870845      -0.11870845       0.11870845 </v>
    <v>       0.11870845       0.11870845      -0.11870845 </v>
   </varray>
  </crystal>
  <varray name="positions" >
   <v>       0.00000000       0.00000000       0.00000000 </v>
   <v>       0.00000000       0.00000000       0.50000000 </v>
   <v>       0.00000000       0.50000000       0.00000000 </v>
   <v>       0.00000000       0.50000000       0.50000000 </v>
   <v>       0.50000000       0.00000000       0.00000000 </v>
   <v>       0.50000000       0.00000000       0.50000000 </v>
   <v>       0.50000000       0.50000000       0.00000000 </v>
   <v>       0.50000000       0.50000000       0.50000000 </v>
   <v>       0.25178063       0.24821937       0.24821937 </v>
   <v>       0.25000000       0.25000000       0.75000000 </v>
   <v>       0.25000000       0.75000000       0.25000000 </v>
   <v>       0.25000000       0.75000000       0.75000000 </v>
   <v>       0.75000000       0.25000000       0.25000000 </v>
   <v>       0.75000000       0.25000000       0.75000000 </v>
   <v>       0.75000000       0.75000000       0.25000000 </v>
   <v>       0.75000000       0.75000000       0.75000000 </v>
  </varray>
 </structure>
</modeling>
