       N       E                     dE             d eps       ncg     rms          rms(c)
DAV:   1     0.955189147216E+01    0.95519E+01   -0.45005E+03   672   0.832E+02

DAV:   2    -0.145428432809E+02   -0.24095E+02   -0.23978E+02   712   0.133E+02

DAV:   3    -0.148534796957E+02   -0.31064E+00   -0.31064E+00   752   0.173E+01

DAV:   4    -0.148542152204E+02   -0.73552E-03   -0.73552E-03   760   0.704E-01

DAV:   5    -0.148542172010E+02   -0.19805E-05   -0.19805E-05   776   0.258E-02    0.701E+00
DAV:   6    -0.133582304422E+02    0.14960E+01   -0.10060E+01   560   0.220E+01    0.223E+00
DAV:   7    -0.133173580883E+02    0.40872E-01   -0.62585E-02   592   0.282E+00    0.121E+00
DAV:   8    -0.132943010206E+02    0.23057E-01   -0.26954E-02   616   0.218E+00    0.128E-01
DAV:   9    -0.132942036500E+02    0.97371E-04   -0.16083E-04   848   0.134E-01    0.761E-02
DAV:  10    -0.132941734363E+02    0.30214E-04   -0.43553E-05   616   0.834E-02    0.806E-03
DAV:  11    -0.132941722690E+02    0.11673E-05   -0.48483E-06   616   0.143E-02    0.240E-03
DAV:  12    -0.132941722269E+02    0.42163E-07   -0.32350E-07   360   0.447E-03

   1 F= -.13294172E+02 E0= -.13294172E+02  d E =0.000000E+00
 Linear response reoptimize wavefunctions
DAV:   1    -0.132941722276E+02   -0.75835E-09   -0.15733E-08   856   0.103E-03
DAV:   2    -0.132941722276E+02   -0.92939E-11   -0.93336E-11   416   0.107E-04
 Linear response G [H, r] |phi>, progress :
  Direction:   1
       N       E                     dE             d eps       ncg     rms
RMM:   1    -0.321955970581E+02   -0.32196E+02    0.11138E+01  1180   0.625E+01
RMM:   2    -0.303729223473E+02    0.18227E+01   -0.58101E-01   937   0.721E+00
RMM:   3    -0.303753826640E+02   -0.24603E-02   -0.43140E-03   992   0.542E-01
RMM:   4    -0.303754296307E+02   -0.46967E-04   -0.53753E-05  1018   0.624E-02
RMM:   5    -0.303754301058E+02   -0.47510E-06   -0.12432E-06   990   0.849E-03
 Linear response G [H, r] |phi>, progress :
  Direction:   2
       N       E                     dE             d eps       ncg     rms
RMM:   1    -0.307181622642E+02   -0.30718E+02    0.13384E+01  1182   0.619E+01
RMM:   2    -0.300885959450E+02    0.62957E+00   -0.60123E-01   919   0.734E+00
RMM:   3    -0.300921483188E+02   -0.35524E-02   -0.56663E-03   985   0.603E-01
RMM:   4    -0.300922122305E+02   -0.63912E-04   -0.67178E-05  1027   0.686E-02
RMM:   5    -0.300922127627E+02   -0.53217E-06   -0.15513E-06   980   0.917E-03
 Linear response G [H, r] |phi>, progress :
  Direction:   3
       N       E                     dE             d eps       ncg     rms
RMM:   1    -0.275126446751E+02   -0.27513E+02    0.54398E+01  1139   0.610E+01
RMM:   2    -0.255758435525E+02    0.19368E+01   -0.40722E-01   891   0.584E+00
RMM:   3    -0.255777315430E+02   -0.18880E-02   -0.36885E-03   943   0.493E-01
RMM:   4    -0.255777744491E+02   -0.42906E-04   -0.40986E-05   942   0.546E-02
RMM:   5    -0.255777748173E+02   -0.36819E-06   -0.96755E-07   927   0.733E-03
 Linear response to external field (no local field effect), progress :
  Direction:   1
       N       E                     dE             d eps       ncg     rms          rms(c)
RMM:   1    -0.131400906706E+00   -0.13140E+00   -0.39855E-01  1158   0.223E+00

RMM:   2    -0.133688304335E+00   -0.22874E-02   -0.75603E-04   917   0.200E-01

RMM:   3    -0.133695541039E+00   -0.72367E-05   -0.97585E-06   947   0.218E-02

RMM:   4    -0.133695649381E+00   -0.10834E-06   -0.20074E-07   827   0.311E-03

 Linear response to external field (no local field effect), progress :
  Direction:   2
       N       E                     dE             d eps       ncg     rms          rms(c)
RMM:   1    -0.131989314418E+00   -0.13199E+00   -0.40642E-01  1159   0.221E+00

RMM:   2    -0.134555954725E+00   -0.25666E-02   -0.84443E-04   898   0.211E-01

RMM:   3    -0.134564192118E+00   -0.82374E-05   -0.11992E-05   928   0.240E-02

RMM:   4    -0.134564328777E+00   -0.13666E-06   -0.23205E-07   827   0.335E-03

 Linear response to external field (no local field effect), progress :
  Direction:   3
       N       E                     dE             d eps       ncg     rms          rms(c)
RMM:   1    -0.809805184359E-01   -0.80981E-01   -0.20410E-01  1151   0.171E+00

RMM:   2    -0.823853313905E-01   -0.14048E-02   -0.44172E-04   896   0.151E-01

RMM:   3    -0.823892710132E-01   -0.39396E-05   -0.61521E-06   866   0.166E-02

RMM:   4    -0.823893383189E-01   -0.67306E-07   -0.13067E-07   748   0.241E-03

 Linear response to external field, progress :
  Direction:   1
       N       E                     dE             d eps       ncg     rms          rms(c)
RMM:   1    -0.114927379862E+00   -0.11493E+00   -0.33773E-01  2468   0.204E+00

RMM:   2    -0.116876400624E+00   -0.19490E-02   -0.67701E-04  1934   0.185E-01    0.537E-01
RMM:   3    -0.114000411850E+00    0.28760E-02   -0.13914E-03  1909   0.340E-01    0.315E-01
RMM:   4    -0.118131874862E+00   -0.41315E-02   -0.24119E-03  1857   0.461E-01    0.245E-02
RMM:   5    -0.118502150424E+00   -0.37028E-03   -0.17379E-05  2063   0.446E-02    0.439E-03
RMM:   6    -0.118557497702E+00   -0.55347E-04   -0.23417E-07  2072   0.439E-03    0.186E-03
RMM:   7    -0.118565737300E+00   -0.82396E-05   -0.47158E-08  1769   0.214E-03    0.222E-04
RMM:   8    -0.118567655053E+00   -0.19178E-05    0.00000E+00   825   0.378E-04    0.477E-05
RMM:   9    -0.118568101779E+00   -0.44673E-06   -0.15983E-11   475   0.427E-04    0.348E-05
 Linear response to external field, progress :
  Direction:   2
       N       E                     dE             d eps       ncg     rms          rms(c)
RMM:   1    -0.114701630440E+00   -0.11470E+00   -0.33547E-01  2479   0.205E+00

RMM:   2    -0.116876610593E+00   -0.21750E-02   -0.68322E-04  1936   0.188E-01    0.537E-01
RMM:   3    -0.114001228830E+00    0.28754E-02   -0.13910E-03  1907   0.340E-01    0.315E-01
RMM:   4    -0.118135744909E+00   -0.41345E-02   -0.24119E-03  1856   0.461E-01    0.245E-02
RMM:   5    -0.118506143876E+00   -0.37040E-03   -0.17444E-05  2063   0.447E-02    0.438E-03
RMM:   6    -0.118561329248E+00   -0.55185E-04   -0.23355E-07  2077   0.439E-03    0.185E-03
RMM:   7    -0.118569531973E+00   -0.82027E-05   -0.47440E-08  1778   0.214E-03    0.225E-04
RMM:   8    -0.118571495542E+00   -0.19636E-05    0.00000E+00   843   0.382E-04    0.454E-05
RMM:   9    -0.118571902264E+00   -0.40672E-06   -0.24174E-11   502   0.430E-04    0.346E-05
 Linear response to external field, progress :
  Direction:   3
       N       E                     dE             d eps       ncg     rms          rms(c)
RMM:   1    -0.114741705338E+00   -0.11474E+00   -0.33587E-01  2483   0.205E+00

RMM:   2    -0.116876544521E+00   -0.21348E-02   -0.68196E-04  1934   0.188E-01    0.537E-01
RMM:   3    -0.114001252979E+00    0.28753E-02   -0.13915E-03  1911   0.340E-01    0.315E-01
RMM:   4    -0.118135724752E+00   -0.41345E-02   -0.24123E-03  1858   0.461E-01    0.245E-02
RMM:   5    -0.118506043410E+00   -0.37032E-03   -0.17399E-05  2065   0.447E-02    0.439E-03
RMM:   6    -0.118561302407E+00   -0.55259E-04   -0.23366E-07  2081   0.439E-03    0.185E-03
RMM:   7    -0.118569487345E+00   -0.81849E-05   -0.47456E-08  1780   0.214E-03    0.224E-04
RMM:   8    -0.118571448242E+00   -0.19609E-05    0.00000E+00   834   0.382E-04    0.456E-05
RMM:   9    -0.118571855838E+00   -0.40760E-06   -0.24204E-11   502   0.430E-04    0.345E-05
