 vasp.5.2.12 26May11 complex 
 executed on              unknown date 2013.05.12  12:57:20
 running on    8 nodes
 distr:  one band on    1 nodes,    8 groups


--------------------------------------------------------------------------------------------------------


 INCAR:
 POTCAR:   PAW Mg 02Mar1998                       
 POTCAR:   PAW O 31May2000                        
 POTCAR:   PAW Mg 02Mar1998                       
   VRHFIN =Mg: s2p0                                                             
   LEXCH  = CA                                                                  
   EATOM  =    23.1864 eV,    1.7042 Ry                                         
                                                                                
   TITEL  = PAW Mg 02Mar1998                                                    
   LULTRA =        F    use ultrasoft PP ?                                      
   IUNSCR =        1    unscreen: 0-lin 1-nonlin 2-no                           
   RPACOR =    2.000    partial core radius                                     
   POMASS =   24.305; ZVAL   =    2.000    mass and valenz                      
   RCORE  =    2.000    outmost cutoff radius                                   
   RWIGS  =    2.880; RWIGS  =    1.524    wigner-seitz radius (au A)           
   ENMAX  =  210.674; ENMIN  =  158.006 eV                                      
   ICORE  =        2    local potential                                         
   LCOR   =        T    correct aug charges                                     
   LPAW   =        T    paw PP                                                  
   EAUG   =  274.554                                                            
   DEXC   =    -.108                                                            
   RMAX   =    3.177    core radius for proj-oper                               
   RDEP   =    2.025    core radius for depl-charge                             
   QCUT   =   -3.935; QGAM   =    7.870    optimization parameters              
                                                                                
   Description                                                                  
     l     E      TYP  RCUT    TYP  RCUT                                        
     0   .000     23  2.000                                                     
     0  2.000     23  2.000                                                     
     1   .000     23  2.000                                                     
     1  2.000     23  2.000                                                     
     2   .000     23  2.000                                                     
  local pseudopotential read in
  partial core-charges read in
  atomic valenz-charges read in
  non local Contribution for L=            0  read in
    real space projection operators read in
  non local Contribution for L=            0  read in
    real space projection operators read in
  non local Contribution for L=            1  read in
    real space projection operators read in
  non local Contribution for L=            1  read in
    real space projection operators read in
    PAW grid and wavefunctions read in

   number of l-projection  operators is LMAX  =            4
   number of lm-projection operators is LMMAX =            8

 POTCAR:   PAW O 31May2000                        
   VRHFIN =O: s2p4                                                              
   LEXCH  = CA                                                                  
   EATOM  =   431.4447 eV,   31.7103 Ry                                         
                                                                                
   TITEL  = PAW O 31May2000                                                     
   LULTRA =        F    use ultrasoft PP ?                                      
   IUNSCR =        0    unscreen: 0-lin 1-nonlin 2-no                           
   RPACOR =     .000    partial core radius                                     
   POMASS =   16.000; ZVAL   =    6.000    mass and valenz                      
   RCORE  =    1.520    outmost cutoff radius                                   
   RWIGS  =    1.550; RWIGS  =     .820    wigner-seitz radius (au A)           
   ENMAX  =  400.000; ENMIN  =  300.000 eV                                      
   ICORE  =        2    local potential                                         
   LCOR   =        T    correct aug charges                                     
   LPAW   =        T    paw PP                                                  
   EAUG   =  605.392                                                            
   DEXC   =     .000                                                            
   RMAX   =    2.265    core radius for proj-oper                               
   RAUG   =    1.300    factor for augmentation sphere                          
   RDEP   =    1.550    radius for radial grids                                 
   QCUT   =   -5.518; QGAM   =   11.037    optimization parameters              
                                                                                
   Description                                                                  
     l     E      TYP  RCUT    TYP  RCUT                                        
     0   .000     23  1.200                                                     
     0  -.700     23  1.200                                                     
     1   .000     23  1.520                                                     
     1   .600     23  1.520                                                     
     2   .000      7  1.500                                                     
  local pseudopotential read in
  atomic valenz-charges read in
  non local Contribution for L=            0  read in
    real space projection operators read in
  non local Contribution for L=            0  read in
    real space projection operators read in
  non local Contribution for L=            1  read in
    real space projection operators read in
  non local Contribution for L=            1  read in
    real space projection operators read in
    PAW grid and wavefunctions read in

   number of l-projection  operators is LMAX  =            4
   number of lm-projection operators is LMMAX =            8

 PAW Mg 02Mar1998                       :
 energy of atom  1       EATOM=  -23.1864
 kinetic energy error for atom=    0.0001 (will be added to EATOM!!)
 PAW O 31May2000                        :
 energy of atom  2       EATOM= -431.4447
 kinetic energy error for atom=    0.0220 (will be added to EATOM!!)


 POSCAR: MgO-Born effective charge               
  positions in direct lattice
  velocities in cartesian coordinates
  No initial velocities read in
 exchange correlation table for  LEXCH =        2
   RHO(1)=    0.500       N(1)  =     2000
   RHO(2)=  100.500       N(2)  =     4000



--------------------------------------------------------------------------------------------------------


 ion  position               nearest neighbor table
   1  0.000  0.000  0.000-   2 2.11   2 2.11   2 2.11   2 2.11   2 2.11   2 2.11
   2  0.500  0.500  0.500-   1 2.11   1 2.11   1 2.11   1 2.11   1 2.11   1 2.11

  LATTYP: Found a face centered cubic cell.
 ALAT       =     4.2120000000
  
  Lattice vectors:
  
 A1 = (   0.0000000000,   2.1060000000,   2.1060000000)
 A2 = (   2.1060000000,   0.0000000000,   2.1060000000)
 A3 = (   2.1060000000,   2.1060000000,   0.0000000000)
 Subroutine PRICEL returns:
 Original cell was already a primitive cell.
 

Analysis of symmetry for initial positions (statically):

 Routine SETGRP: Setting up the symmetry group for a 
 face centered cubic supercell.


 Subroutine GETGRP returns: Found 48 space group operations
 (whereof 48 operations were pure point group operations)
 out of a pool of 48 trial point group operations.


The static configuration has the point symmetry O_h .

Analysis of symmetry for dynamics (positions and initial velocities):

 Subroutine DYNSYM returns: Found 48 space group operations
 (whereof 48 operations were pure point group operations)
 out of a pool of 48 trial space group operations
 (whereof 48 operations were pure point group operations)
 and found also     1 'primitive' translations


The dynamic configuration has the point symmetry O_h .


 KPOINTS: Magnesium Oxide                         

Automatic generation of k-mesh.
 
 Subroutine IBZKPT returns following result:
 ===========================================
 
 Found     35 irreducible k-points:
 
 Following reciprocal coordinates:
            Coordinates               Weight
  0.000000  0.000000  0.000000      1.000000
  0.111111  0.000000  0.000000      8.000000
  0.222222  0.000000  0.000000      8.000000
  0.333333  0.000000  0.000000      8.000000
  0.444444  0.000000  0.000000      8.000000
  0.111111  0.111111  0.000000      6.000000
  0.222222  0.111111  0.000000     24.000000
  0.333333  0.111111  0.000000     24.000000
  0.444444  0.111111  0.000000     24.000000
 -0.444444  0.111111  0.000000     24.000000
 -0.333333  0.111111  0.000000     24.000000
 -0.222222  0.111111  0.000000     24.000000
 -0.111111  0.111111  0.000000     12.000000
  0.222222  0.222222  0.000000      6.000000
  0.333333  0.222222  0.000000     24.000000
  0.444444  0.222222  0.000000     24.000000
 -0.444444  0.222222  0.000000     24.000000
 -0.333333  0.222222  0.000000     24.000000
 -0.222222  0.222222  0.000000     12.000000
  0.333333  0.333333  0.000000      6.000000
  0.444444  0.333333  0.000000     24.000000
 -0.444444  0.333333  0.000000     24.000000
 -0.333333  0.333333  0.000000     12.000000
  0.444444  0.444444  0.000000      6.000000
 -0.444444  0.444444  0.000000     12.000000
  0.333333  0.222222  0.111111     24.000000
  0.444444  0.222222  0.111111     48.000000
 -0.444444  0.222222  0.111111     48.000000
  0.444444  0.333333  0.111111     24.000000
 -0.444444  0.333333  0.111111     48.000000
 -0.333333  0.333333  0.111111     48.000000
 -0.222222  0.333333  0.111111     24.000000
 -0.444444  0.444444  0.111111     24.000000
 -0.333333  0.444444  0.111111     24.000000
 -0.333333  0.444444  0.222222     24.000000
 
 Following cartesian coordinates:
            Coordinates               Weight
  0.000000  0.000000  0.000000      1.000000
 -0.111111  0.111111  0.111111      8.000000
 -0.222222  0.222222  0.222222      8.000000
 -0.333333  0.333333  0.333333      8.000000
 -0.444444  0.444444  0.444444      8.000000
  0.000000  0.000000  0.222222      6.000000
 -0.111111  0.111111  0.333333     24.000000
 -0.222222  0.222222  0.444444     24.000000
 -0.333333  0.333333  0.555556     24.000000
  0.555556 -0.555556 -0.333333     24.000000
  0.444444 -0.444444 -0.222222     24.000000
  0.333333 -0.333333 -0.111111     24.000000
  0.222222 -0.222222  0.000000     12.000000
  0.000000  0.000000  0.444444      6.000000
 -0.111111  0.111111  0.555556     24.000000
 -0.222222  0.222222  0.666667     24.000000
  0.666667 -0.666667 -0.222222     24.000000
  0.555556 -0.555556 -0.111111     24.000000
  0.444444 -0.444444  0.000000     12.000000
  0.000000  0.000000  0.666667      6.000000
 -0.111111  0.111111  0.777778     24.000000
  0.777778 -0.777778 -0.111111     24.000000
  0.666667 -0.666667  0.000000     12.000000
  0.000000  0.000000  0.888889      6.000000
  0.888889 -0.888889  0.000000     12.000000
  0.000000  0.222222  0.444444     24.000000
 -0.111111  0.333333  0.555556     48.000000
  0.777778 -0.555556 -0.333333     48.000000
  0.000000  0.222222  0.666667     24.000000
  0.888889 -0.666667 -0.222222     48.000000
  0.777778 -0.555556 -0.111111     48.000000
  0.666667 -0.444444  0.000000     24.000000
  1.000000 -0.777778 -0.111111     24.000000
  0.888889 -0.666667  0.000000     24.000000
  1.000000 -0.555556 -0.111111     24.000000
 
 TETIRR: Found    115 inequivalent tetrahedra from     4374
 
 Subroutine IBZKPT_HF returns following result:
 ==============================================
 
 Found    729 k-points in 1st BZ
 the following    729 k-points will be used (e.g. in the exchange kernel)
 Following reciprocal coordinates:   # in IRBZ
  0.000000  0.000000  0.000000       1 t-inv F
  0.111111  0.000000  0.000000       2 t-inv F
  0.222222  0.000000  0.000000       3 t-inv F
  0.333333  0.000000  0.000000       4 t-inv F
  0.444444  0.000000  0.000000       5 t-inv F
  0.111111  0.111111  0.000000       6 t-inv F
  0.222222  0.111111  0.000000       7 t-inv F
  0.333333  0.111111  0.000000       8 t-inv F
  0.444444  0.111111  0.000000       9 t-inv F
 -0.444444  0.111111  0.000000      10 t-inv F
 -0.333333  0.111111  0.000000      11 t-inv F
 -0.222222  0.111111  0.000000      12 t-inv F
 -0.111111  0.111111  0.000000      13 t-inv F
  0.222222  0.222222  0.000000      14 t-inv F
  0.333333  0.222222  0.000000      15 t-inv F
  0.444444  0.222222  0.000000      16 t-inv F
 -0.444444  0.222222  0.000000      17 t-inv F
 -0.333333  0.222222  0.000000      18 t-inv F
 -0.222222  0.222222  0.000000      19 t-inv F
  0.333333  0.333333  0.000000      20 t-inv F
  0.444444  0.333333  0.000000      21 t-inv F
 -0.444444  0.333333  0.000000      22 t-inv F
 -0.333333  0.333333  0.000000      23 t-inv F
  0.444444  0.444444  0.000000      24 t-inv F
 -0.444444  0.444444  0.000000      25 t-inv F
  0.333333  0.222222  0.111111      26 t-inv F
  0.444444  0.222222  0.111111      27 t-inv F
 -0.444444  0.222222  0.111111      28 t-inv F
  0.444444  0.333333  0.111111      29 t-inv F
 -0.444444  0.333333  0.111111      30 t-inv F
 -0.333333  0.333333  0.111111      31 t-inv F
 -0.222222  0.333333  0.111111      32 t-inv F
 -0.444444  0.444444  0.111111      33 t-inv F
 -0.333333  0.444444  0.111111      34 t-inv F
 -0.333333  0.444444  0.222222      35 t-inv F
 -0.111111  0.000000  0.000000       2 t-inv F
  0.000000  0.111111  0.000000       2 t-inv F
  0.000000 -0.111111  0.000000       2 t-inv F
  0.000000  0.000000  0.111111       2 t-inv F
  0.000000  0.000000 -0.111111       2 t-inv F
  0.111111  0.111111  0.111111       2 t-inv F
 -0.111111 -0.111111 -0.111111       2 t-inv F
 -0.222222  0.000000  0.000000       3 t-inv F
  0.000000  0.222222  0.000000       3 t-inv F
  0.000000 -0.222222  0.000000       3 t-inv F
  0.000000  0.000000  0.222222       3 t-inv F
  0.000000  0.000000 -0.222222       3 t-inv F
  0.222222  0.222222  0.222222       3 t-inv F
 -0.222222 -0.222222 -0.222222       3 t-inv F
 -0.333333  0.000000  0.000000       4 t-inv F
  0.000000  0.333333  0.000000       4 t-inv F
  0.000000 -0.333333  0.000000       4 t-inv F
  0.000000  0.000000  0.333333       4 t-inv F
  0.000000  0.000000 -0.333333       4 t-inv F
  0.333333  0.333333  0.333333       4 t-inv F
 -0.333333 -0.333333 -0.333333       4 t-inv F
 -0.444444  0.000000  0.000000       5 t-inv F
  0.000000  0.444444  0.000000       5 t-inv F
  0.000000 -0.444444  0.000000       5 t-inv F
  0.000000  0.000000  0.444444       5 t-inv F
  0.000000  0.000000 -0.444444       5 t-inv F
  0.444444  0.444444  0.444444       5 t-inv F
 -0.444444 -0.444444 -0.444444       5 t-inv F
 -0.111111 -0.111111  0.000000       6 t-inv F
  0.000000  0.111111  0.111111       6 t-inv F
  0.000000 -0.111111 -0.111111       6 t-inv F
  0.111111  0.000000  0.111111       6 t-inv F
 -0.111111  0.000000 -0.111111       6 t-inv F
 -0.222222 -0.111111  0.000000       7 t-inv F
  0.000000  0.222222  0.111111       7 t-inv F
  0.000000 -0.222222 -0.111111       7 t-inv F
  0.111111  0.000000  0.222222       7 t-inv F
 -0.111111  0.000000 -0.222222       7 t-inv F
  0.111111  0.111111 -0.111111       7 t-inv F
 -0.111111 -0.111111  0.111111       7 t-inv F
  0.222222  0.111111  0.222222       7 t-inv F
 -0.222222 -0.111111 -0.222222       7 t-inv F
  0.111111  0.222222  0.000000       7 t-inv F
 -0.111111 -0.222222  0.000000       7 t-inv F
  0.111111 -0.111111 -0.111111       7 t-inv F
 -0.111111  0.111111  0.111111       7 t-inv F
  0.222222  0.222222  0.111111       7 t-inv F
 -0.222222 -0.222222 -0.111111       7 t-inv F
  0.000000  0.111111  0.222222       7 t-inv F
  0.000000 -0.111111 -0.222222       7 t-inv F
 -0.111111  0.111111 -0.111111       7 t-inv F
  0.111111 -0.111111  0.111111       7 t-inv F
  0.111111  0.222222  0.222222       7 t-inv F
 -0.111111 -0.222222 -0.222222       7 t-inv F
  0.222222  0.000000  0.111111       7 t-inv F
 -0.222222  0.000000 -0.111111       7 t-inv F
 -0.333333 -0.111111  0.000000       8 t-inv F
  0.000000  0.333333  0.111111       8 t-inv F
  0.000000 -0.333333 -0.111111       8 t-inv F
  0.111111  0.000000  0.333333       8 t-inv F
 -0.111111  0.000000 -0.333333       8 t-inv F
  0.111111  0.111111 -0.222222       8 t-inv F
 -0.111111 -0.111111  0.222222       8 t-inv F
  0.333333  0.222222  0.333333       8 t-inv F
 -0.333333 -0.222222 -0.333333       8 t-inv F
  0.111111  0.333333  0.000000       8 t-inv F
 -0.111111 -0.333333  0.000000       8 t-inv F
  0.222222 -0.111111 -0.111111       8 t-inv F
 -0.222222  0.111111  0.111111       8 t-inv F
  0.333333  0.333333  0.222222       8 t-inv F
 -0.333333 -0.333333 -0.222222       8 t-inv F
  0.000000  0.111111  0.333333       8 t-inv F
  0.000000 -0.111111 -0.333333       8 t-inv F
 -0.111111  0.222222 -0.111111       8 t-inv F
  0.111111 -0.222222  0.111111       8 t-inv F
  0.222222  0.333333  0.333333       8 t-inv F
 -0.222222 -0.333333 -0.333333       8 t-inv F
  0.333333  0.000000  0.111111       8 t-inv F
 -0.333333  0.000000 -0.111111       8 t-inv F
 -0.444444 -0.111111  0.000000       9 t-inv F
  0.000000  0.444444  0.111111       9 t-inv F
  0.000000 -0.444444 -0.111111       9 t-inv F
  0.111111  0.000000  0.444444       9 t-inv F
 -0.111111  0.000000 -0.444444       9 t-inv F
  0.111111  0.111111 -0.333333       9 t-inv F
 -0.111111 -0.111111  0.333333       9 t-inv F
  0.444444  0.333333  0.444444       9 t-inv F
 -0.444444 -0.333333 -0.444444       9 t-inv F
  0.111111  0.444444  0.000000       9 t-inv F
 -0.111111 -0.444444  0.000000       9 t-inv F
  0.333333 -0.111111 -0.111111       9 t-inv F
 -0.333333  0.111111  0.111111       9 t-inv F
  0.444444  0.444444  0.333333       9 t-inv F
 -0.444444 -0.444444 -0.333333       9 t-inv F
  0.000000  0.111111  0.444444       9 t-inv F
  0.000000 -0.111111 -0.444444       9 t-inv F
 -0.111111  0.333333 -0.111111       9 t-inv F
  0.111111 -0.333333  0.111111       9 t-inv F
  0.333333  0.444444  0.444444       9 t-inv F
 -0.333333 -0.444444 -0.444444       9 t-inv F
  0.444444  0.000000  0.111111       9 t-inv F
 -0.444444  0.000000 -0.111111       9 t-inv F
  0.444444 -0.111111  0.000000      10 t-inv F
  0.000000 -0.444444  0.111111      10 t-inv F
  0.000000  0.444444 -0.111111      10 t-inv F
  0.111111  0.000000 -0.444444      10 t-inv F
 -0.111111  0.000000  0.444444      10 t-inv F
  0.111111  0.111111  0.555556      10 t-inv F
 -0.111111 -0.111111 -0.555556      10 t-inv F
 -0.444444 -0.555556 -0.444444      10 t-inv F
  0.444444  0.555556  0.444444      10 t-inv F
  0.111111 -0.444444  0.000000      10 t-inv F
 -0.111111  0.444444  0.000000      10 t-inv F
 -0.555556 -0.111111 -0.111111      10 t-inv F
  0.555556  0.111111  0.111111      10 t-inv F
 -0.444444 -0.444444 -0.555556      10 t-inv F
  0.444444  0.444444  0.555556      10 t-inv F
  0.000000  0.111111 -0.444444      10 t-inv F
  0.000000 -0.111111  0.444444      10 t-inv F
 -0.111111 -0.555556 -0.111111      10 t-inv F
  0.111111  0.555556  0.111111      10 t-inv F
 -0.555556 -0.444444 -0.444444      10 t-inv F
  0.555556  0.444444  0.444444      10 t-inv F
 -0.444444  0.000000  0.111111      10 t-inv F
  0.444444  0.000000 -0.111111      10 t-inv F
  0.333333 -0.111111  0.000000      11 t-inv F
  0.000000 -0.333333  0.111111      11 t-inv F
  0.000000  0.333333 -0.111111      11 t-inv F
  0.111111  0.000000 -0.333333      11 t-inv F
 -0.111111  0.000000  0.333333      11 t-inv F
  0.111111  0.111111  0.444444      11 t-inv F
 -0.111111 -0.111111 -0.444444      11 t-inv F
 -0.333333 -0.444444 -0.333333      11 t-inv F
  0.333333  0.444444  0.333333      11 t-inv F
  0.111111 -0.333333  0.000000      11 t-inv F
 -0.111111  0.333333  0.000000      11 t-inv F
 -0.444444 -0.111111 -0.111111      11 t-inv F
  0.444444  0.111111  0.111111      11 t-inv F
 -0.333333 -0.333333 -0.444444      11 t-inv F
  0.333333  0.333333  0.444444      11 t-inv F
  0.000000  0.111111 -0.333333      11 t-inv F
  0.000000 -0.111111  0.333333      11 t-inv F
 -0.111111 -0.444444 -0.111111      11 t-inv F
  0.111111  0.444444  0.111111      11 t-inv F
 -0.444444 -0.333333 -0.333333      11 t-inv F
  0.444444  0.333333  0.333333      11 t-inv F
 -0.333333  0.000000  0.111111      11 t-inv F
  0.333333  0.000000 -0.111111      11 t-inv F
  0.222222 -0.111111  0.000000      12 t-inv F
  0.000000 -0.222222  0.111111      12 t-inv F
  0.000000  0.222222 -0.111111      12 t-inv F
  0.111111  0.000000 -0.222222      12 t-inv F
 -0.111111  0.000000  0.222222      12 t-inv F
  0.111111  0.111111  0.333333      12 t-inv F
 -0.111111 -0.111111 -0.333333      12 t-inv F
 -0.222222 -0.333333 -0.222222      12 t-inv F
  0.222222  0.333333  0.222222      12 t-inv F
  0.111111 -0.222222  0.000000      12 t-inv F
 -0.111111  0.222222  0.000000      12 t-inv F
 -0.333333 -0.111111 -0.111111      12 t-inv F
  0.333333  0.111111  0.111111      12 t-inv F
 -0.222222 -0.222222 -0.333333      12 t-inv F
  0.222222  0.222222  0.333333      12 t-inv F
  0.000000  0.111111 -0.222222      12 t-inv F
  0.000000 -0.111111  0.222222      12 t-inv F
 -0.111111 -0.333333 -0.111111      12 t-inv F
  0.111111  0.333333  0.111111      12 t-inv F
 -0.333333 -0.222222 -0.222222      12 t-inv F
  0.333333  0.222222  0.222222      12 t-inv F
 -0.222222  0.000000  0.111111      12 t-inv F
  0.222222  0.000000 -0.111111      12 t-inv F
  0.111111 -0.111111  0.000000      13 t-inv F
  0.000000 -0.111111  0.111111      13 t-inv F
  0.000000  0.111111 -0.111111      13 t-inv F
  0.111111  0.000000 -0.111111      13 t-inv F
 -0.111111  0.000000  0.111111      13 t-inv F
  0.111111  0.111111  0.222222      13 t-inv F
 -0.111111 -0.111111 -0.222222      13 t-inv F
 -0.111111 -0.222222 -0.111111      13 t-inv F
  0.111111  0.222222  0.111111      13 t-inv F
 -0.222222 -0.111111 -0.111111      13 t-inv F
  0.222222  0.111111  0.111111      13 t-inv F
 -0.222222 -0.222222  0.000000      14 t-inv F
  0.000000  0.222222  0.222222      14 t-inv F
  0.000000 -0.222222 -0.222222      14 t-inv F
  0.222222  0.000000  0.222222      14 t-inv F
 -0.222222  0.000000 -0.222222      14 t-inv F
 -0.333333 -0.222222  0.000000      15 t-inv F
  0.000000  0.333333  0.222222      15 t-inv F
  0.000000 -0.333333 -0.222222      15 t-inv F
  0.222222  0.000000  0.333333      15 t-inv F
 -0.222222  0.000000 -0.333333      15 t-inv F
  0.222222  0.222222 -0.111111      15 t-inv F
 -0.222222 -0.222222  0.111111      15 t-inv F
  0.333333  0.111111  0.333333      15 t-inv F
 -0.333333 -0.111111 -0.333333      15 t-inv F
  0.222222  0.333333  0.000000      15 t-inv F
 -0.222222 -0.333333  0.000000      15 t-inv F
  0.111111 -0.222222 -0.222222      15 t-inv F
 -0.111111  0.222222  0.222222      15 t-inv F
  0.333333  0.333333  0.111111      15 t-inv F
 -0.333333 -0.333333 -0.111111      15 t-inv F
  0.000000  0.222222  0.333333      15 t-inv F
  0.000000 -0.222222 -0.333333      15 t-inv F
 -0.222222  0.111111 -0.222222      15 t-inv F
  0.222222 -0.111111  0.222222      15 t-inv F
  0.111111  0.333333  0.333333      15 t-inv F
 -0.111111 -0.333333 -0.333333      15 t-inv F
  0.333333  0.000000  0.222222      15 t-inv F
 -0.333333  0.000000 -0.222222      15 t-inv F
 -0.444444 -0.222222  0.000000      16 t-inv F
  0.000000  0.444444  0.222222      16 t-inv F
  0.000000 -0.444444 -0.222222      16 t-inv F
  0.222222  0.000000  0.444444      16 t-inv F
 -0.222222  0.000000 -0.444444      16 t-inv F
  0.222222  0.222222 -0.222222      16 t-inv F
 -0.222222 -0.222222  0.222222      16 t-inv F
  0.444444  0.222222  0.444444      16 t-inv F
 -0.444444 -0.222222 -0.444444      16 t-inv F
  0.222222  0.444444  0.000000      16 t-inv F
 -0.222222 -0.444444  0.000000      16 t-inv F
  0.222222 -0.222222 -0.222222      16 t-inv F
 -0.222222  0.222222  0.222222      16 t-inv F
  0.444444  0.444444  0.222222      16 t-inv F
 -0.444444 -0.444444 -0.222222      16 t-inv F
  0.000000  0.222222  0.444444      16 t-inv F
  0.000000 -0.222222 -0.444444      16 t-inv F
 -0.222222  0.222222 -0.222222      16 t-inv F
  0.222222 -0.222222  0.222222      16 t-inv F
  0.222222  0.444444  0.444444      16 t-inv F
 -0.222222 -0.444444 -0.444444      16 t-inv F
  0.444444  0.000000  0.222222      16 t-inv F
 -0.444444  0.000000 -0.222222      16 t-inv F
  0.444444 -0.222222  0.000000      17 t-inv F
  0.000000 -0.444444  0.222222      17 t-inv F
  0.000000  0.444444 -0.222222      17 t-inv F
  0.222222  0.000000 -0.444444      17 t-inv F
 -0.222222  0.000000  0.444444      17 t-inv F
  0.222222  0.222222  0.666667      17 t-inv F
 -0.222222 -0.222222 -0.666667      17 t-inv F
 -0.444444 -0.666667 -0.444444      17 t-inv F
  0.444444  0.666667  0.444444      17 t-inv F
  0.222222 -0.444444  0.000000      17 t-inv F
 -0.222222  0.444444  0.000000      17 t-inv F
 -0.666667 -0.222222 -0.222222      17 t-inv F
  0.666667  0.222222  0.222222      17 t-inv F
 -0.444444 -0.444444 -0.666667      17 t-inv F
  0.444444  0.444444  0.666667      17 t-inv F
  0.000000  0.222222 -0.444444      17 t-inv F
  0.000000 -0.222222  0.444444      17 t-inv F
 -0.222222 -0.666667 -0.222222      17 t-inv F
  0.222222  0.666667  0.222222      17 t-inv F
 -0.666667 -0.444444 -0.444444      17 t-inv F
  0.666667  0.444444  0.444444      17 t-inv F
 -0.444444  0.000000  0.222222      17 t-inv F
  0.444444  0.000000 -0.222222      17 t-inv F
  0.333333 -0.222222  0.000000      18 t-inv F
  0.000000 -0.333333  0.222222      18 t-inv F
  0.000000  0.333333 -0.222222      18 t-inv F
  0.222222  0.000000 -0.333333      18 t-inv F
 -0.222222  0.000000  0.333333      18 t-inv F
  0.222222  0.222222  0.555556      18 t-inv F
 -0.222222 -0.222222 -0.555556      18 t-inv F
 -0.333333 -0.555556 -0.333333      18 t-inv F
  0.333333  0.555556  0.333333      18 t-inv F
  0.222222 -0.333333  0.000000      18 t-inv F
 -0.222222  0.333333  0.000000      18 t-inv F
 -0.555556 -0.222222 -0.222222      18 t-inv F
  0.555556  0.222222  0.222222      18 t-inv F
 -0.333333 -0.333333 -0.555556      18 t-inv F
  0.333333  0.333333  0.555556      18 t-inv F
  0.000000  0.222222 -0.333333      18 t-inv F
  0.000000 -0.222222  0.333333      18 t-inv F
 -0.222222 -0.555556 -0.222222      18 t-inv F
  0.222222  0.555556  0.222222      18 t-inv F
 -0.555556 -0.333333 -0.333333      18 t-inv F
  0.555556  0.333333  0.333333      18 t-inv F
 -0.333333  0.000000  0.222222      18 t-inv F
  0.333333  0.000000 -0.222222      18 t-inv F
  0.222222 -0.222222  0.000000      19 t-inv F
  0.000000 -0.222222  0.222222      19 t-inv F
  0.000000  0.222222 -0.222222      19 t-inv F
  0.222222  0.000000 -0.222222      19 t-inv F
 -0.222222  0.000000  0.222222      19 t-inv F
  0.222222  0.222222  0.444444      19 t-inv F
 -0.222222 -0.222222 -0.444444      19 t-inv F
 -0.222222 -0.444444 -0.222222      19 t-inv F
  0.222222  0.444444  0.222222      19 t-inv F
 -0.444444 -0.222222 -0.222222      19 t-inv F
  0.444444  0.222222  0.222222      19 t-inv F
 -0.333333 -0.333333  0.000000      20 t-inv F
  0.000000  0.333333  0.333333      20 t-inv F
  0.000000 -0.333333 -0.333333      20 t-inv F
  0.333333  0.000000  0.333333      20 t-inv F
 -0.333333  0.000000 -0.333333      20 t-inv F
 -0.444444 -0.333333  0.000000      21 t-inv F
  0.000000  0.444444  0.333333      21 t-inv F
  0.000000 -0.444444 -0.333333      21 t-inv F
  0.333333  0.000000  0.444444      21 t-inv F
 -0.333333  0.000000 -0.444444      21 t-inv F
  0.333333  0.333333 -0.111111      21 t-inv F
 -0.333333 -0.333333  0.111111      21 t-inv F
  0.444444  0.111111  0.444444      21 t-inv F
 -0.444444 -0.111111 -0.444444      21 t-inv F
  0.333333  0.444444  0.000000      21 t-inv F
 -0.333333 -0.444444  0.000000      21 t-inv F
  0.111111 -0.333333 -0.333333      21 t-inv F
 -0.111111  0.333333  0.333333      21 t-inv F
  0.444444  0.444444  0.111111      21 t-inv F
 -0.444444 -0.444444 -0.111111      21 t-inv F
  0.000000  0.333333  0.444444      21 t-inv F
  0.000000 -0.333333 -0.444444      21 t-inv F
 -0.333333  0.111111 -0.333333      21 t-inv F
  0.333333 -0.111111  0.333333      21 t-inv F
  0.111111  0.444444  0.444444      21 t-inv F
 -0.111111 -0.444444 -0.444444      21 t-inv F
  0.444444  0.000000  0.333333      21 t-inv F
 -0.444444  0.000000 -0.333333      21 t-inv F
  0.444444 -0.333333  0.000000      22 t-inv F
  0.000000 -0.444444  0.333333      22 t-inv F
  0.000000  0.444444 -0.333333      22 t-inv F
  0.333333  0.000000 -0.444444      22 t-inv F
 -0.333333  0.000000  0.444444      22 t-inv F
  0.333333  0.333333  0.777778      22 t-inv F
 -0.333333 -0.333333 -0.777778      22 t-inv F
 -0.444444 -0.777778 -0.444444      22 t-inv F
  0.444444  0.777778  0.444444      22 t-inv F
  0.333333 -0.444444  0.000000      22 t-inv F
 -0.333333  0.444444  0.000000      22 t-inv F
 -0.777778 -0.333333 -0.333333      22 t-inv F
  0.777778  0.333333  0.333333      22 t-inv F
 -0.444444 -0.444444 -0.777778      22 t-inv F
  0.444444  0.444444  0.777778      22 t-inv F
  0.000000  0.333333 -0.444444      22 t-inv F
  0.000000 -0.333333  0.444444      22 t-inv F
 -0.333333 -0.777778 -0.333333      22 t-inv F
  0.333333  0.777778  0.333333      22 t-inv F
 -0.777778 -0.444444 -0.444444      22 t-inv F
  0.777778  0.444444  0.444444      22 t-inv F
 -0.444444  0.000000  0.333333      22 t-inv F
  0.444444  0.000000 -0.333333      22 t-inv F
  0.333333 -0.333333  0.000000      23 t-inv F
  0.000000 -0.333333  0.333333      23 t-inv F
  0.000000  0.333333 -0.333333      23 t-inv F
  0.333333  0.000000 -0.333333      23 t-inv F
 -0.333333  0.000000  0.333333      23 t-inv F
  0.333333  0.333333  0.666667      23 t-inv F
 -0.333333 -0.333333 -0.666667      23 t-inv F
 -0.333333 -0.666667 -0.333333      23 t-inv F
  0.333333  0.666667  0.333333      23 t-inv F
 -0.666667 -0.333333 -0.333333      23 t-inv F
  0.666667  0.333333  0.333333      23 t-inv F
 -0.444444 -0.444444  0.000000      24 t-inv F
  0.000000  0.444444  0.444444      24 t-inv F
  0.000000 -0.444444 -0.444444      24 t-inv F
  0.444444  0.000000  0.444444      24 t-inv F
 -0.444444  0.000000 -0.444444      24 t-inv F
  0.444444 -0.444444  0.000000      25 t-inv F
  0.000000 -0.444444  0.444444      25 t-inv F
  0.000000  0.444444 -0.444444      25 t-inv F
  0.444444  0.000000 -0.444444      25 t-inv F
 -0.444444  0.000000  0.444444      25 t-inv F
  0.444444  0.444444  0.888889      25 t-inv F
 -0.444444 -0.444444 -0.888889      25 t-inv F
 -0.444444 -0.888889 -0.444444      25 t-inv F
  0.444444  0.888889  0.444444      25 t-inv F
 -0.888889 -0.444444 -0.444444      25 t-inv F
  0.888889  0.444444  0.444444      25 t-inv F
 -0.333333 -0.222222 -0.111111      26 t-inv F
  0.111111  0.333333  0.222222      26 t-inv F
 -0.111111 -0.333333 -0.222222      26 t-inv F
  0.222222  0.111111  0.333333      26 t-inv F
 -0.222222 -0.111111 -0.333333      26 t-inv F
  0.222222  0.111111 -0.111111      26 t-inv F
 -0.222222 -0.111111  0.111111      26 t-inv F
  0.333333  0.111111  0.222222      26 t-inv F
 -0.333333 -0.111111 -0.222222      26 t-inv F
  0.111111 -0.222222 -0.111111      26 t-inv F
 -0.111111  0.222222  0.111111      26 t-inv F
  0.111111  0.222222 -0.111111      26 t-inv F
 -0.111111 -0.222222  0.111111      26 t-inv F
  0.111111 -0.111111 -0.222222      26 t-inv F
 -0.111111  0.111111  0.222222      26 t-inv F
  0.222222  0.333333  0.111111      26 t-inv F
 -0.222222 -0.333333 -0.111111      26 t-inv F
 -0.111111  0.111111 -0.222222      26 t-inv F
  0.111111 -0.111111  0.222222      26 t-inv F
 -0.222222  0.111111 -0.111111      26 t-inv F
  0.222222 -0.111111  0.111111      26 t-inv F
  0.111111  0.222222  0.333333      26 t-inv F
 -0.111111 -0.222222 -0.333333      26 t-inv F
 -0.444444 -0.222222 -0.111111      27 t-inv F
  0.111111  0.444444  0.222222      27 t-inv F
 -0.111111 -0.444444 -0.222222      27 t-inv F
  0.222222  0.111111  0.444444      27 t-inv F
 -0.222222 -0.111111 -0.444444      27 t-inv F
  0.222222  0.111111 -0.222222      27 t-inv F
 -0.222222 -0.111111  0.222222      27 t-inv F
  0.444444  0.222222  0.333333      27 t-inv F
 -0.444444 -0.222222 -0.333333      27 t-inv F
  0.111111 -0.333333 -0.111111      27 t-inv F
 -0.111111  0.333333  0.111111      27 t-inv F
  0.111111  0.333333 -0.111111      27 t-inv F
 -0.111111 -0.333333  0.111111      27 t-inv F
  0.222222 -0.111111 -0.222222      27 t-inv F
 -0.222222  0.111111  0.222222      27 t-inv F
 -0.333333 -0.222222 -0.444444      27 t-inv F
  0.333333  0.222222  0.444444      27 t-inv F
  0.333333  0.444444  0.222222      27 t-inv F
 -0.333333 -0.444444 -0.222222      27 t-inv F
 -0.111111  0.111111 -0.333333      27 t-inv F
  0.111111 -0.111111  0.333333      27 t-inv F
 -0.222222  0.222222  0.111111      27 t-inv F
  0.222222 -0.222222 -0.111111      27 t-inv F
 -0.111111  0.111111  0.333333      27 t-inv F
  0.111111 -0.111111 -0.333333      27 t-inv F
 -0.222222  0.222222 -0.111111      27 t-inv F
  0.222222 -0.222222  0.111111      27 t-inv F
 -0.444444 -0.333333 -0.222222      27 t-inv F
  0.444444  0.333333  0.222222      27 t-inv F
  0.222222  0.333333  0.444444      27 t-inv F
 -0.222222 -0.333333 -0.444444      27 t-inv F
 -0.333333 -0.111111  0.111111      27 t-inv F
  0.333333  0.111111 -0.111111      27 t-inv F
  0.111111 -0.222222  0.222222      27 t-inv F
 -0.111111  0.222222 -0.222222      27 t-inv F
  0.333333 -0.111111  0.111111      27 t-inv F
 -0.333333  0.111111 -0.111111      27 t-inv F
 -0.111111 -0.222222  0.222222      27 t-inv F
  0.111111  0.222222 -0.222222      27 t-inv F
 -0.222222 -0.444444 -0.333333      27 t-inv F
  0.222222  0.444444  0.333333      27 t-inv F
 -0.444444 -0.111111 -0.222222      27 t-inv F
  0.444444  0.111111  0.222222      27 t-inv F
 -0.222222 -0.444444 -0.111111      27 t-inv F
  0.222222  0.444444  0.111111      27 t-inv F
 -0.111111 -0.222222 -0.444444      27 t-inv F
  0.111111  0.222222  0.444444      27 t-inv F
  0.444444 -0.222222 -0.111111      28 t-inv F
  0.111111 -0.444444  0.222222      28 t-inv F
 -0.111111  0.444444 -0.222222      28 t-inv F
  0.222222  0.111111 -0.444444      28 t-inv F
 -0.222222 -0.111111  0.444444      28 t-inv F
  0.222222  0.111111  0.666667      28 t-inv F
 -0.222222 -0.111111 -0.666667      28 t-inv F
 -0.444444 -0.666667 -0.555556      28 t-inv F
  0.444444  0.666667  0.555556      28 t-inv F
  0.111111  0.555556 -0.111111      28 t-inv F
 -0.111111 -0.555556  0.111111      28 t-inv F
  0.111111 -0.555556 -0.111111      28 t-inv F
 -0.111111  0.555556  0.111111      28 t-inv F
 -0.666667 -0.111111 -0.222222      28 t-inv F
  0.666667  0.111111  0.222222      28 t-inv F
  0.555556  0.666667  0.444444      28 t-inv F
 -0.555556 -0.666667 -0.444444      28 t-inv F
 -0.555556 -0.444444 -0.666667      28 t-inv F
  0.555556  0.444444  0.666667      28 t-inv F
 -0.111111  0.111111  0.555556      28 t-inv F
  0.111111 -0.111111 -0.555556      28 t-inv F
  0.666667  0.222222  0.111111      28 t-inv F
 -0.666667 -0.222222 -0.111111      28 t-inv F
 -0.111111  0.111111 -0.555556      28 t-inv F
  0.111111 -0.111111  0.555556      28 t-inv F
 -0.222222 -0.666667 -0.111111      28 t-inv F
  0.222222  0.666667  0.111111      28 t-inv F
  0.444444  0.555556  0.666667      28 t-inv F
 -0.444444 -0.555556 -0.666667      28 t-inv F
 -0.666667 -0.555556 -0.444444      28 t-inv F
  0.666667  0.555556  0.444444      28 t-inv F
  0.555556 -0.111111  0.111111      28 t-inv F
 -0.555556  0.111111 -0.111111      28 t-inv F
  0.111111  0.666667  0.222222      28 t-inv F
 -0.111111 -0.666667 -0.222222      28 t-inv F
 -0.555556 -0.111111  0.111111      28 t-inv F
  0.555556  0.111111 -0.111111      28 t-inv F
 -0.111111 -0.222222 -0.666667      28 t-inv F
  0.111111  0.222222  0.666667      28 t-inv F
  0.666667  0.444444  0.555556      28 t-inv F
 -0.666667 -0.444444 -0.555556      28 t-inv F
  0.444444 -0.111111 -0.222222      28 t-inv F
 -0.444444  0.111111  0.222222      28 t-inv F
 -0.222222  0.444444 -0.111111      28 t-inv F
  0.222222 -0.444444  0.111111      28 t-inv F
 -0.111111 -0.222222  0.444444      28 t-inv F
  0.111111  0.222222 -0.444444      28 t-inv F
 -0.444444 -0.333333 -0.111111      29 t-inv F
  0.111111  0.444444  0.333333      29 t-inv F
 -0.111111 -0.444444 -0.333333      29 t-inv F
  0.333333  0.111111  0.444444      29 t-inv F
 -0.333333 -0.111111 -0.444444      29 t-inv F
  0.333333  0.222222 -0.111111      29 t-inv F
 -0.333333 -0.222222  0.111111      29 t-inv F
  0.444444  0.111111  0.333333      29 t-inv F
 -0.444444 -0.111111 -0.333333      29 t-inv F
  0.111111 -0.333333 -0.222222      29 t-inv F
 -0.111111  0.333333  0.222222      29 t-inv F
  0.222222  0.333333 -0.111111      29 t-inv F
 -0.222222 -0.333333  0.111111      29 t-inv F
  0.111111 -0.222222 -0.333333      29 t-inv F
 -0.111111  0.222222  0.333333      29 t-inv F
  0.333333  0.444444  0.111111      29 t-inv F
 -0.333333 -0.444444 -0.111111      29 t-inv F
 -0.222222  0.111111 -0.333333      29 t-inv F
  0.222222 -0.111111  0.333333      29 t-inv F
 -0.333333  0.111111 -0.222222      29 t-inv F
  0.333333 -0.111111  0.222222      29 t-inv F
  0.111111  0.333333  0.444444      29 t-inv F
 -0.111111 -0.333333 -0.444444      29 t-inv F
  0.444444 -0.333333 -0.111111      30 t-inv F
  0.111111 -0.444444  0.333333      30 t-inv F
 -0.111111  0.444444 -0.333333      30 t-inv F
  0.333333  0.111111 -0.444444      30 t-inv F
 -0.333333 -0.111111  0.444444      30 t-inv F
  0.333333  0.222222  0.777778      30 t-inv F
 -0.333333 -0.222222 -0.777778      30 t-inv F
 -0.444444 -0.777778 -0.555556      30 t-inv F
  0.444444  0.777778  0.555556      30 t-inv F
  0.111111  0.555556 -0.222222      30 t-inv F
 -0.111111 -0.555556  0.222222      30 t-inv F
  0.222222 -0.555556 -0.111111      30 t-inv F
 -0.222222  0.555556  0.111111      30 t-inv F
 -0.777778 -0.222222 -0.333333      30 t-inv F
  0.777778  0.222222  0.333333      30 t-inv F
  0.555556  0.777778  0.444444      30 t-inv F
 -0.555556 -0.777778 -0.444444      30 t-inv F
 -0.555556 -0.444444 -0.777778      30 t-inv F
  0.555556  0.444444  0.777778      30 t-inv F
 -0.222222  0.111111  0.555556      30 t-inv F
  0.222222 -0.111111 -0.555556      30 t-inv F
  0.777778  0.333333  0.222222      30 t-inv F
 -0.777778 -0.333333 -0.222222      30 t-inv F
 -0.111111  0.222222 -0.555556      30 t-inv F
  0.111111 -0.222222  0.555556      30 t-inv F
 -0.333333 -0.777778 -0.222222      30 t-inv F
  0.333333  0.777778  0.222222      30 t-inv F
  0.444444  0.555556  0.777778      30 t-inv F
 -0.444444 -0.555556 -0.777778      30 t-inv F
 -0.777778 -0.555556 -0.444444      30 t-inv F
  0.777778  0.555556  0.444444      30 t-inv F
  0.555556 -0.222222  0.111111      30 t-inv F
 -0.555556  0.222222 -0.111111      30 t-inv F
  0.222222  0.777778  0.333333      30 t-inv F
 -0.222222 -0.777778 -0.333333      30 t-inv F
 -0.555556 -0.111111  0.222222      30 t-inv F
  0.555556  0.111111 -0.222222      30 t-inv F
 -0.222222 -0.333333 -0.777778      30 t-inv F
  0.222222  0.333333  0.777778      30 t-inv F
  0.777778  0.444444  0.555556      30 t-inv F
 -0.777778 -0.444444 -0.555556      30 t-inv F
  0.444444 -0.111111 -0.333333      30 t-inv F
 -0.444444  0.111111  0.333333      30 t-inv F
 -0.333333  0.444444 -0.111111      30 t-inv F
  0.333333 -0.444444  0.111111      30 t-inv F
 -0.111111 -0.333333  0.444444      30 t-inv F
  0.111111  0.333333 -0.444444      30 t-inv F
  0.333333 -0.333333 -0.111111      31 t-inv F
  0.111111 -0.333333  0.333333      31 t-inv F
 -0.111111  0.333333 -0.333333      31 t-inv F
  0.333333  0.111111 -0.333333      31 t-inv F
 -0.333333 -0.111111  0.333333      31 t-inv F
  0.333333  0.222222  0.666667      31 t-inv F
 -0.333333 -0.222222 -0.666667      31 t-inv F
 -0.333333 -0.666667 -0.444444      31 t-inv F
  0.333333  0.666667  0.444444      31 t-inv F
  0.111111  0.444444 -0.222222      31 t-inv F
 -0.111111 -0.444444  0.222222      31 t-inv F
  0.222222 -0.444444 -0.111111      31 t-inv F
 -0.222222  0.444444  0.111111      31 t-inv F
 -0.666667 -0.222222 -0.333333      31 t-inv F
  0.666667  0.222222  0.333333      31 t-inv F
  0.444444  0.666667  0.333333      31 t-inv F
 -0.444444 -0.666667 -0.333333      31 t-inv F
 -0.444444 -0.333333 -0.666667      31 t-inv F
  0.444444  0.333333  0.666667      31 t-inv F
 -0.222222  0.111111  0.444444      31 t-inv F
  0.222222 -0.111111 -0.444444      31 t-inv F
  0.666667  0.333333  0.222222      31 t-inv F
 -0.666667 -0.333333 -0.222222      31 t-inv F
 -0.111111  0.222222 -0.444444      31 t-inv F
  0.111111 -0.222222  0.444444      31 t-inv F
 -0.333333 -0.666667 -0.222222      31 t-inv F
  0.333333  0.666667  0.222222      31 t-inv F
  0.333333  0.444444  0.666667      31 t-inv F
 -0.333333 -0.444444 -0.666667      31 t-inv F
 -0.666667 -0.444444 -0.333333      31 t-inv F
  0.666667  0.444444  0.333333      31 t-inv F
  0.444444 -0.222222  0.111111      31 t-inv F
 -0.444444  0.222222 -0.111111      31 t-inv F
  0.222222  0.666667  0.333333      31 t-inv F
 -0.222222 -0.666667 -0.333333      31 t-inv F
 -0.444444 -0.111111  0.222222      31 t-inv F
  0.444444  0.111111 -0.222222      31 t-inv F
 -0.222222 -0.333333 -0.666667      31 t-inv F
  0.222222  0.333333  0.666667      31 t-inv F
  0.666667  0.333333  0.444444      31 t-inv F
 -0.666667 -0.333333 -0.444444      31 t-inv F
  0.333333 -0.111111 -0.333333      31 t-inv F
 -0.333333  0.111111  0.333333      31 t-inv F
 -0.333333  0.333333 -0.111111      31 t-inv F
  0.333333 -0.333333  0.111111      31 t-inv F
 -0.111111 -0.333333  0.333333      31 t-inv F
  0.111111  0.333333 -0.333333      31 t-inv F
  0.222222 -0.333333 -0.111111      32 t-inv F
  0.111111 -0.222222  0.333333      32 t-inv F
 -0.111111  0.222222 -0.333333      32 t-inv F
  0.333333  0.111111 -0.222222      32 t-inv F
 -0.333333 -0.111111  0.222222      32 t-inv F
  0.333333  0.222222  0.555556      32 t-inv F
 -0.333333 -0.222222 -0.555556      32 t-inv F
 -0.222222 -0.555556 -0.333333      32 t-inv F
  0.222222  0.555556  0.333333      32 t-inv F
  0.111111  0.333333 -0.222222      32 t-inv F
 -0.111111 -0.333333  0.222222      32 t-inv F
 -0.555556 -0.222222 -0.333333      32 t-inv F
  0.555556  0.222222  0.333333      32 t-inv F
  0.333333  0.555556  0.222222      32 t-inv F
 -0.333333 -0.555556 -0.222222      32 t-inv F
 -0.222222  0.111111  0.333333      32 t-inv F
  0.222222 -0.111111 -0.333333      32 t-inv F
  0.555556  0.333333  0.222222      32 t-inv F
 -0.555556 -0.333333 -0.222222      32 t-inv F
  0.222222  0.333333  0.555556      32 t-inv F
 -0.222222 -0.333333 -0.555556      32 t-inv F
  0.333333 -0.222222  0.111111      32 t-inv F
 -0.333333  0.222222 -0.111111      32 t-inv F
  0.444444 -0.444444 -0.111111      33 t-inv F
  0.111111 -0.444444  0.444444      33 t-inv F
 -0.111111  0.444444 -0.444444      33 t-inv F
  0.444444  0.111111 -0.444444      33 t-inv F
 -0.444444 -0.111111  0.444444      33 t-inv F
  0.444444  0.333333  0.888889      33 t-inv F
 -0.444444 -0.333333 -0.888889      33 t-inv F
 -0.444444 -0.888889 -0.555556      33 t-inv F
  0.444444  0.888889  0.555556      33 t-inv F
  0.111111  0.555556 -0.333333      33 t-inv F
 -0.111111 -0.555556  0.333333      33 t-inv F
  0.333333 -0.555556 -0.111111      33 t-inv F
 -0.333333  0.555556  0.111111      33 t-inv F
 -0.888889 -0.333333 -0.444444      33 t-inv F
  0.888889  0.333333  0.444444      33 t-inv F
 -0.555556 -0.444444 -0.888889      33 t-inv F
  0.555556  0.444444  0.888889      33 t-inv F
 -0.333333  0.111111  0.555556      33 t-inv F
  0.333333 -0.111111 -0.555556      33 t-inv F
 -0.444444 -0.888889 -0.333333      33 t-inv F
  0.444444  0.888889  0.333333      33 t-inv F
 -0.888889 -0.555556 -0.444444      33 t-inv F
  0.888889  0.555556  0.444444      33 t-inv F
  0.333333 -0.444444 -0.111111      34 t-inv F
  0.111111 -0.333333  0.444444      34 t-inv F
 -0.111111  0.333333 -0.444444      34 t-inv F
  0.444444  0.111111 -0.333333      34 t-inv F
 -0.444444 -0.111111  0.333333      34 t-inv F
  0.444444  0.333333  0.777778      34 t-inv F
 -0.444444 -0.333333 -0.777778      34 t-inv F
 -0.333333 -0.777778 -0.444444      34 t-inv F
  0.333333  0.777778  0.444444      34 t-inv F
  0.111111  0.444444 -0.333333      34 t-inv F
 -0.111111 -0.444444  0.333333      34 t-inv F
 -0.777778 -0.333333 -0.444444      34 t-inv F
  0.777778  0.333333  0.444444      34 t-inv F
  0.444444  0.777778  0.333333      34 t-inv F
 -0.444444 -0.777778 -0.333333      34 t-inv F
 -0.333333  0.111111  0.444444      34 t-inv F
  0.333333 -0.111111 -0.444444      34 t-inv F
  0.777778  0.444444  0.333333      34 t-inv F
 -0.777778 -0.444444 -0.333333      34 t-inv F
  0.333333  0.444444  0.777778      34 t-inv F
 -0.333333 -0.444444 -0.777778      34 t-inv F
  0.444444 -0.333333  0.111111      34 t-inv F
 -0.444444  0.333333 -0.111111      34 t-inv F
  0.333333 -0.444444 -0.222222      35 t-inv F
  0.222222 -0.333333  0.444444      35 t-inv F
 -0.222222  0.333333 -0.444444      35 t-inv F
  0.444444  0.222222 -0.333333      35 t-inv F
 -0.444444 -0.222222  0.333333      35 t-inv F
  0.444444  0.222222  0.777778      35 t-inv F
 -0.444444 -0.222222 -0.777778      35 t-inv F
 -0.333333 -0.777778 -0.555556      35 t-inv F
  0.333333  0.777778  0.555556      35 t-inv F
  0.222222  0.555556 -0.222222      35 t-inv F
 -0.222222 -0.555556  0.222222      35 t-inv F
  0.222222 -0.555556 -0.222222      35 t-inv F
 -0.222222  0.555556  0.222222      35 t-inv F
 -0.777778 -0.222222 -0.444444      35 t-inv F
  0.777778  0.222222  0.444444      35 t-inv F
 -0.555556 -0.333333 -0.777778      35 t-inv F
  0.555556  0.333333  0.777778      35 t-inv F
 -0.222222  0.222222  0.555556      35 t-inv F
  0.222222 -0.222222 -0.555556      35 t-inv F
 -0.444444 -0.777778 -0.222222      35 t-inv F
  0.444444  0.777778  0.222222      35 t-inv F
 -0.777778 -0.555556 -0.333333      35 t-inv F
  0.777778  0.555556  0.333333      35 t-inv F


--------------------------------------------------------------------------------------------------------




 Dimension of arrays:
   k-points           NKPTS =     35   k-points in BZ     NKDIM =     35   number of bands    NBANDS=      8
   number of dos      NEDOS =    301   number of ions     NIONS =      2
   non local maximal  LDIM  =      4   non local SUM 2l+1 LMDIM =      8
   total plane-waves  NPLWV =  13824
   max r-space proj   IRMAX =      1   max aug-charges    IRDMAX=   9512
   dimension x,y,z NGX =    24 NGY =   24 NGZ =   24
   dimension x,y,z NGXF=    32 NGYF=   32 NGZF=   32
   support grid    NGXF=    32 NGYF=   32 NGZF=   32
   ions per type =               1   1
 NGX,Y,Z   is equivalent  to a cutoff of  13.40, 13.40, 13.40 a.u.
 NGXF,Y,Z  is equivalent  to a cutoff of  17.86, 17.86, 17.86 a.u.


 I would recommend the setting:
   dimension x,y,z NGX =    22 NGY =   22 NGZ =   22
 SYSTEM =  unknown system                          
 POSCAR =  MgO-Born effective charge               

 Startparameter for this run:
   NWRITE =      2    write-flag & timer
   PREC   = h         normal or accurate (medium, high low for compatibility)
   ISTART =      0    job   : 0-new  1-cont  2-samecut
   ICHARG =      2    charge: 1-file 2-atom 10-const
   ISPIN  =      1    spin polarized calculation?
   LNONCOLLINEAR =      F non collinear calculations
   LSORBIT =      F    spin-orbit coupling
   INIWAV =      1    electr: 0-lowe 1-rand  2-diag
   LASPH  =      F    aspherical Exc in radial PAW
   METAGGA=      F    non-selfconsistent MetaGGA calc.

 Electronic Relaxation 1
   ENCUT  =  500.0 eV  36.75 Ry    6.06 a.u.   5.43  5.43  5.43*2*pi/ulx,y,z
   ENINI  =  500.0     initial cutoff
   ENAUG  =  605.4 eV  augmentation charge cutoff
   NELM   =     60;   NELMIN=  2; NELMDL= -5     # of ELM steps 
   EDIFF  = 0.1E-05   stopping-criterion for ELM
   LREAL  =      F    real-space projection
   LCOMPAT=      F    compatible to vasp.4.4
   GGA_COMPAT  = T    GGA compatible to vasp.4.4-vasp.4.6
   LMAXPAW     = -100 max onsite density
   LMAXMIX     =    2 max onsite mixed and CHGCAR
   VOSKOWN=      0    Vosko Wilk Nusair interpolation
   ROPT   =    0.00000   0.00000
 Ionic relaxation
   EDIFFG = 0.1E-04   stopping-criterion for IOM
   NSW    =      0    number of steps for IOM
   NBLOCK =      1;   KBLOCK =      1    inner block; outer block 
   IBRION =     -1    ionic relax: 0-MD 1-quasi-New 2-CG
   NFREE  =      0    steps in history (QN), initial steepest desc. (CG)
   ISIF   =      0    stress and relaxation
   IWAVPR =     10    prediction:  0-non 1-charg 2-wave 3-comb
   ISYM   =      2    0-nonsym 1-usesym 2-fastsym
   LCORR  =      T    Harris-Foulkes like correction to forces

   POTIM  = 0.5000    time-step for ionic-motion
   TEIN   =    0.0    initial temperature
   TEBEG  =    0.0;   TEEND  =   0.0 temperature during run
   SMASS  =  -3.00    Nose mass-parameter (am)
   estimated Nose-frequenzy (Omega)   =  0.10E-29 period in steps =****** mass=  -0.203E-27a.u.
   SCALEE = 1.0000    scale energy and forces
   NPACO  =    256;   APACO  = 16.0  distance and # of slots for P.C.
   PSTRESS=    0.0 pullay stress

  Mass of Ions in am
   POMASS =  24.31 16.00
  Ionic Valenz
   ZVAL   =   2.00  6.00
  Atomic Wigner-Seitz radii
   RWIGS  =  -1.00 -1.00
  virtual crystal weights 
   VCA    =   1.00  1.00
   NELECT =       8.0000    total number of electrons
   NUPDOWN=      -1.0000    fix difference up-down

 DOS related values:
   EMIN   =  10.00;   EMAX   =-10.00  energy-range for DOS
   EFERMI =   0.00
   ISMEAR =    -5;   SIGMA  =   0.20  broadening in eV -4-tet -1-fermi 0-gaus

 Electronic relaxation 2 (details)
   IALGO  =     38    algorithm
   LDIAG  =      T    sub-space diagonalisation (order eigenvalues)
   LSUBROT=      T    optimize rotation matrix (better conditioning)
   TURBO    =      0    0=normal 1=particle mesh
   IRESTART =      0    0=no restart 2=restart with 2 vectors
   NREBOOT  =      0    no. of reboots
   NMIN     =      0    reboot dimension
   EREF     =   0.00    reference energy to select bands
   IMIX   =      4    mixing-type and parameters
     AMIX     =   0.40;   BMIX     =  1.00
     AMIX_MAG =   1.60;   BMIX_MAG =  1.00
     AMIN     =   0.10
     WC   =   100.;   INIMIX=   1;  MIXPRE=   1

 Intra band minimization:
   WEIMIN = 0.0000     energy-eigenvalue tresh-hold
   EBREAK =  0.31E-07  absolut break condition
   DEPER  =   0.30     relativ break condition  

   TIME   =   0.40     timestep for ELM

  volume/ion in A,a.u.               =       9.34        63.03
  Fermi-wavevector in a.u.,A,eV,Ry     =   1.233966  2.331857 20.717205  1.522672
  Thomas-Fermi vector in A             =   2.368675

 Write flags
   LWAVE  =      T    write WAVECAR
   LCHARG =      T    write CHGCAR
   LVTOT  =      F    write LOCPOT, total local potential
   LVHAR  =      F    write LOCPOT, Hartree potential only
   LELF   =      F    write electronic localiz. function (ELF)
   LORBIT =      0    0 simple, 1 ext, 2 COOP (PROOUT)


 Dipole corrections
   LMONO  =      F    monopole corrections only (constant potential shift)
   LDIPOL =      F    correct potential (dipole corrections)
   IDIPOL =      0    1-x, 2-y, 3-z, 4-all directions 
   EPSILON=  1.0000000 bulk dielectric constant

 Exchange correlation treatment:
   GGA     =    --    GGA type
   LEXCH   =     2    internal setting for exchange type
   VOSKOWN=      0    Vosko Wilk Nusair interpolation
   LHFCALC =     F    Hartree Fock is set to
   LHFONE  =     F    Hartree Fock one center treatment
   AEXX    =    0.0000 exact exchange contribution

 Linear response parameters
   LEPSILON=     T    determine dielectric tensor
   LRPA    =     F    only Hartree local field effects (RPA)
   LNABLA  =     F    use nabla operator in PAW spheres
   LVEL    =     F    velocity operator in full k-point grid
   LINTERFAST=   F  fast interpolation
   KINTER  =     0    interpolate to denser k-point grid
   CSHIFT  =0.1000    complex shift for real part using Kramers Kronig
   OMEGAMAX=  -1.0    maximum frequency
   RTIME   =    0.100 relaxation time in fs

 Orbital magnetization related:
   ORBITALMAG=     F  switch on orbital magnetization
   LCHIMAG   =     F  perturbation theory with respect to B field
   DQ        =  0.001000  dq finite difference perturbation B field



--------------------------------------------------------------------------------------------------------


 Static calculation
 charge density and potential will be updated during run
 non-spin polarized calculation
 Variant of blocked Davidson
 Davidson routine will perform the subspace rotation
 perform sub-space diagonalisation
    after iterative eigenvector-optimisation
 modified Broyden-mixing scheme, WC =      100.0
 initial mixing is a Kerker type mixing with AMIX =  0.4000 and BMIX =      1.0000
 Hartree-type preconditioning will be used
 using additional bands             4
 reciprocal scheme for non local part
 use partial core corrections
 calculate Harris-corrections to forces 
   (improved forces if not selfconsistent)
 use of overlap-Matrix (Vanderbilt PP)
 Fermi weights with tetrahedron method with Bloechl corrections


--------------------------------------------------------------------------------------------------------


  energy-cutoff  :      500.00
  volume of cell :       18.68
      direct lattice vectors                 reciprocal lattice vectors
     0.000000000  2.106000000  2.106000000    -0.237416904  0.237416904  0.237416904
     2.106000000  0.000000000  2.106000000     0.237416904 -0.237416904  0.237416904
     2.106000000  2.106000000  0.000000000     0.237416904  0.237416904 -0.237416904

  length of vectors
     2.978333762  2.978333762  2.978333762     0.411218140  0.411218140  0.411218140



 k-points in units of 2pi/SCALE and weight: Magnesium Oxide                         
   0.00000000  0.00000000  0.00000000       0.001
  -0.11111111  0.11111111  0.11111111       0.011
  -0.22222222  0.22222222  0.22222222       0.011
  -0.33333333  0.33333333  0.33333333       0.011
  -0.44444444  0.44444444  0.44444444       0.011
   0.00000000  0.00000000  0.22222222       0.008
  -0.11111111  0.11111111  0.33333333       0.033
  -0.22222222  0.22222222  0.44444444       0.033
  -0.33333333  0.33333333  0.55555556       0.033
   0.55555556 -0.55555556 -0.33333333       0.033
   0.44444444 -0.44444444 -0.22222222       0.033
   0.33333333 -0.33333333 -0.11111111       0.033
   0.22222222 -0.22222222  0.00000000       0.016
   0.00000000  0.00000000  0.44444444       0.008
  -0.11111111  0.11111111  0.55555556       0.033
  -0.22222222  0.22222222  0.66666667       0.033
   0.66666667 -0.66666667 -0.22222222       0.033
   0.55555556 -0.55555556 -0.11111111       0.033
   0.44444444 -0.44444444  0.00000000       0.016
   0.00000000  0.00000000  0.66666667       0.008
  -0.11111111  0.11111111  0.77777778       0.033
   0.77777778 -0.77777778 -0.11111111       0.033
   0.66666667 -0.66666667  0.00000000       0.016
   0.00000000  0.00000000  0.88888889       0.008
   0.88888889 -0.88888889  0.00000000       0.016
   0.00000000  0.22222222  0.44444444       0.033
  -0.11111111  0.33333333  0.55555556       0.066
   0.77777778 -0.55555556 -0.33333333       0.066
   0.00000000  0.22222222  0.66666667       0.033
   0.88888889 -0.66666667 -0.22222222       0.066
   0.77777778 -0.55555556 -0.11111111       0.066
   0.66666667 -0.44444444  0.00000000       0.033
   1.00000000 -0.77777778 -0.11111111       0.033
   0.88888889 -0.66666667  0.00000000       0.033
   1.00000000 -0.55555556 -0.11111111       0.033

 k-points in reciprocal lattice and weights: Magnesium Oxide                         
   0.00000000  0.00000000  0.00000000       0.001
   0.11111111  0.00000000  0.00000000       0.011
   0.22222222  0.00000000  0.00000000       0.011
   0.33333333  0.00000000  0.00000000       0.011
   0.44444444  0.00000000  0.00000000       0.011
   0.11111111  0.11111111  0.00000000       0.008
   0.22222222  0.11111111  0.00000000       0.033
   0.33333333  0.11111111  0.00000000       0.033
   0.44444444  0.11111111  0.00000000       0.033
  -0.44444444  0.11111111  0.00000000       0.033
  -0.33333333  0.11111111  0.00000000       0.033
  -0.22222222  0.11111111  0.00000000       0.033
  -0.11111111  0.11111111  0.00000000       0.016
   0.22222222  0.22222222  0.00000000       0.008
   0.33333333  0.22222222  0.00000000       0.033
   0.44444444  0.22222222  0.00000000       0.033
  -0.44444444  0.22222222  0.00000000       0.033
  -0.33333333  0.22222222  0.00000000       0.033
  -0.22222222  0.22222222  0.00000000       0.016
   0.33333333  0.33333333  0.00000000       0.008
   0.44444444  0.33333333  0.00000000       0.033
  -0.44444444  0.33333333  0.00000000       0.033
  -0.33333333  0.33333333  0.00000000       0.016
   0.44444444  0.44444444  0.00000000       0.008
  -0.44444444  0.44444444  0.00000000       0.016
   0.33333333  0.22222222  0.11111111       0.033
   0.44444444  0.22222222  0.11111111       0.066
  -0.44444444  0.22222222  0.11111111       0.066
   0.44444444  0.33333333  0.11111111       0.033
  -0.44444444  0.33333333  0.11111111       0.066
  -0.33333333  0.33333333  0.11111111       0.066
  -0.22222222  0.33333333  0.11111111       0.033
  -0.44444444  0.44444444  0.11111111       0.033
  -0.33333333  0.44444444  0.11111111       0.033
  -0.33333333  0.44444444  0.22222222       0.033

 position of ions in fractional coordinates (direct lattice) 
   0.00000000  0.00000000  0.00000000
   0.50000000  0.50000000  0.50000000

 position of ions in cartesian coordinates  (Angst):
   0.00000000  0.00000000  0.00000000
   2.10600000  2.10600000  2.10600000



--------------------------------------------------------------------------------------------------------


 k-point  1 :  0.00000.00000.0000  plane waves:     459
 k-point  2 :  0.11110.00000.0000  plane waves:     495
 k-point  3 :  0.22220.00000.0000  plane waves:     483
 k-point  4 :  0.33330.00000.0000  plane waves:     474
 k-point  5 :  0.44440.00000.0000  plane waves:     470
 k-point  6 :  0.11110.11110.0000  plane waves:     495
 k-point  7 :  0.22220.11110.0000  plane waves:     484
 k-point  8 :  0.33330.11110.0000  plane waves:     481
 k-point  9 :  0.44440.11110.0000  plane waves:     470
 k-point 10 :  -.44440.11110.0000  plane waves:     470
 k-point 11 :  -.33330.11110.0000  plane waves:     470
 k-point 12 :  -.22220.11110.0000  plane waves:     481
 k-point 13 :  -.11110.11110.0000  plane waves:     485
 k-point 14 :  0.22220.22220.0000  plane waves:     480
 k-point 15 :  0.33330.22220.0000  plane waves:     470
 k-point 16 :  0.44440.22220.0000  plane waves:     471
 k-point 17 :  -.44440.22220.0000  plane waves:     467
 k-point 18 :  -.33330.22220.0000  plane waves:     476
 k-point 19 :  -.22220.22220.0000  plane waves:     479
 k-point 20 :  0.33330.33330.0000  plane waves:     472
 k-point 21 :  0.44440.33330.0000  plane waves:     469
 k-point 22 :  -.44440.33330.0000  plane waves:     472
 k-point 23 :  -.33330.33330.0000  plane waves:     466
 k-point 24 :  0.44440.44440.0000  plane waves:     468
 k-point 25 :  -.44440.44440.0000  plane waves:     470
 k-point 26 :  0.33330.22220.1111  plane waves:     479
 k-point 27 :  0.44440.22220.1111  plane waves:     476
 k-point 28 :  -.44440.22220.1111  plane waves:     474
 k-point 29 :  0.44440.33330.1111  plane waves:     472
 k-point 30 :  -.44440.33330.1111  plane waves:     472
 k-point 31 :  -.33330.33330.1111  plane waves:     473
 k-point 32 :  -.22220.33330.1111  plane waves:     473
 k-point 33 :  -.44440.44440.1111  plane waves:     469
 k-point 34 :  -.33330.44440.1111  plane waves:     477
 k-point 35 :  -.33330.44440.2222  plane waves:     472

 maximum and minimum number of plane-waves per node :       495      459

 maximum number of plane-waves:       495
 maximum index in each direction: 
   IXMAX=    5   IYMAX=    5   IZMAX=    5
   IXMIN=   -5   IYMIN=   -5   IZMIN=   -5

 NGX is ok and might be reduce to  22
 NGY is ok and might be reduce to  22
 NGZ is ok and might be reduce to  22

 serial   3D FFT for wavefunctions
 parallel 3D FFT for charge:
    minimum data exchange during FFTs selected (reduces bandwidth)


 total amount of memory used by VASP on root node    33547. kBytes
========================================================================

   base      :      30000. kBytes
   nonl-proj :       2237. kBytes
   fftplans  :        217. kBytes
   grid      :        801. kBytes
   one-center:          6. kBytes
   wavefun   :        286. kBytes

 Broyden mixing: mesh for mixing (old mesh)
   NGX = 11   NGY = 11   NGZ = 11
  (NGX  = 32   NGY  = 32   NGZ  = 32)
  gives a total of   1331 points

 initial charge density was supplied:
 charge density of overlapping atoms calculated
 number of electron       8.0000000 magnetization 
 keeping initial charge density in first step


--------------------------------------------------------------------------------------------------------


 Maximum index for augmentation-charges          1129 (set IRDMAX)


--------------------------------------------------------------------------------------------------------


 First call to EWALD:  gamma=   0.668
 Maximum number of real-space cells 3x 3x 3
 Maximum number of reciprocal cells 3x 3x 3

    FEWALD:  cpu time    0.00: real time    0.00


----------------------------------------- Iteration    1(   1)  ---------------------------------------


    POTLOK:  cpu time    0.00: real time    0.02
    SETDIJ:  cpu time    0.00: real time    0.01
     EDDAV:  cpu time    0.15: real time    0.31
 BZINTS: Fermi energy: 13.642424;  8.000000 electrons
         Band energy:  -0.595733;  BLOECHL correction: -0.065700
       DOS:  cpu time    0.00: real time    0.01
    --------------------------------------------
      LOOP:  cpu time    0.17: real time    0.35

 eigenvalue-minimisations  :   672
 total energy-change (2. order) : 0.9551891E+01  (-0.4500520E+03)
 number of electron       8.0000000 magnetization 
 augmentation part        8.0000000 magnetization 

 Free energy of the ion-electron system (eV)
  ---------------------------------------------------
  alpha Z        PSCENC =         4.16166101
  Ewald energy   TEWEN  =      -358.19654049
  -1/2 Hartree   DENC   =      -120.10072346
  -exchange  EXHF       =         0.00000000
  -V(xc)+E(xc)   XCENC  =        20.77497527
  PAW double counting   =       257.02161424     -248.12242250
  entropy T*S    EENTRO =         0.00000000
  eigenvalues    EBANDS =        -0.59573277
  atomic energy  EATOM  =       454.60906019
  ---------------------------------------------------
  free energy    TOTEN  =         9.55189147 eV

  energy without entropy =        9.55189147  energy(sigma->0) =        9.55189147


--------------------------------------------------------------------------------------------------------


 E-fermi :  13.6424     XC(G=0): -11.4131     alpha+bet :-14.9973


 k-point   1 :       0.0000    0.0000    0.0000
  band No.  band energies     occupation 
      1     -14.1500      2.00000
      2       6.0549      2.00000
      3       8.7004      2.00000
      4      10.0149      2.00000
      5      18.1434      0.00000
      6      22.1705      0.00000
      7      25.2695      0.00000
      8      27.9619      0.00000

 k-point   2 :       0.1111    0.0000    0.0000
  band No.  band energies     occupation 
      1     -13.3750      2.00000
      2       5.2086      2.00000
      3       6.8267      2.00000
      4       9.3985      2.03236
      5      16.0283      0.00000
      6      22.8853      0.00000
      7      26.4552      0.00000
      8      30.4244      0.00000

 k-point   3 :       0.2222    0.0000    0.0000
  band No.  band energies     occupation 
      1     -12.7246      2.00000
      2       1.9703      2.00000
      3       4.2654      2.00000
      4      11.4119      2.06173
      5      15.9590      0.00000
      6      22.7154      0.00000
      7      26.0276      0.00000
      8      31.2360      0.00000

 k-point   4 :       0.3333    0.0000    0.0000
  band No.  band energies     occupation 
      1     -12.3566      2.00000
      2       0.0213      2.00000
      3       7.8179      2.00000
      4      10.7886      2.00000
      5      13.8969      0.00000
      6      21.6625      0.00000
      7      27.4785      0.00000
      8      33.3000      0.00000

 k-point   5 :       0.4444    0.0000    0.0000
  band No.  band energies     occupation 
      1      -9.4471      2.00000
      2      -1.3388      2.00000
      3       1.8112      2.00000
      4       6.0089      2.00000
      5      14.1759      0.00000
      6      16.6284      0.00000
      7      23.7806      0.00000
      8      26.0710      0.00000

 k-point   6 :       0.1111    0.1111    0.0000
  band No.  band energies     occupation 
      1     -12.6320      2.00000
      2       4.2371      2.00000
      3       7.0717      2.00000
      4       8.6544      2.26500
      5      13.6774      0.00000
      6      20.0714      0.00000
      7      27.5709      0.00000
      8      31.9130      0.00000

 k-point   7 :       0.2222    0.1111    0.0000
  band No.  band energies     occupation 
      1     -12.1533      2.00000
      2       4.1157      2.00000
      3       7.0208      2.00000
      4      14.1735      1.48866
      5      17.3481     -0.00159
      6      23.6945      0.00000
      7      27.6628      0.00000
      8      29.5482      0.00000

 k-point   8 :       0.3333    0.1111    0.0000
  band No.  band energies     occupation 
      1     -12.5539      2.00000
      2       2.1421      2.00000
      3       3.7429      2.00000
      4      11.8432      2.01355
      5      14.4461      0.00532
      6      19.6195      0.00000
      7      24.7182      0.00000
      8      31.8043      0.00000

 k-point   9 :       0.4444    0.1111    0.0000
  band No.  band energies     occupation 
      1     -10.0993      2.00000
      2      -0.9399      2.00000
      3       1.8018      2.00000
      4       4.8225      2.00000
      5      13.7040      0.00000
      6      18.4462      0.00000
      7      21.9966      0.00000
      8      25.2023      0.00000

 k-point  10 :      -0.4444    0.1111    0.0000
  band No.  band energies     occupation 
      1     -11.5883      2.00000
      2      -1.0685      2.00000
      3       2.1291      2.00000
      4       5.8024      2.00000
      5      14.3422      0.00000
      6      17.3483      0.00000
      7      23.5759      0.00000
      8      25.4715      0.00000

 k-point  11 :      -0.3333    0.1111    0.0000
  band No.  band energies     occupation 
      1     -11.3841      2.00000
      2      -0.4203      2.00000
      3       2.7672      2.00000
      4       5.2374      2.00000
      5      14.0891      0.00000
      6      16.5418      0.00000
      7      23.4748      0.00000
      8      25.2832      0.00000

 k-point  12 :      -0.2222    0.1111    0.0000
  band No.  band energies     occupation 
      1     -12.3498      2.00000
      2       0.7546      2.00000
      3       7.1050      2.00000
      4      12.6924      2.00478
      5      17.1719      0.00000
      6      23.1968      0.00000
      7      25.4406      0.00000
      8      31.0868      0.00000

 k-point  13 :      -0.1111    0.1111    0.0000
  band No.  band energies     occupation 
      1     -13.1423      2.00000
      2       3.6631      2.00000
      3       7.9564      2.00000
      4      12.8207      1.99647
      5      15.4784      0.00000
      6      22.3549      0.00000
      7      25.0727      0.00000
      8      29.2486      0.00000

 k-point  14 :       0.2222    0.2222    0.0000
  band No.  band energies     occupation 
      1     -12.1362      2.00000
      2       3.9526      2.00000
      3       5.8221      2.00000
      4      11.6814      2.12324
      5      15.5655     -0.12521
      6      20.7096      0.00000
      7      26.6345      0.00000
      8      27.8886      0.00000

 k-point  15 :       0.3333    0.2222    0.0000
  band No.  band energies     occupation 
      1     -11.4559      2.00000
      2       0.5727      2.00000
      3       2.8985      2.00000
      4       3.3327      2.02476
      5      13.3088      0.47719
      6      19.8181      0.00000
      7      20.8013      0.00000
      8      25.5755      0.00000

 k-point  16 :       0.4444    0.2222    0.0000
  band No.  band energies     occupation 
      1     -10.6640      2.00000
      2       2.2070      2.00000
      3       7.3960      2.00000
      4       9.4965      2.00000
      5      16.9935     -0.05237
      6      22.6231      0.00000
      7      29.1264      0.00000
      8      34.9166      0.00000

 k-point  17 :      -0.4444    0.2222    0.0000
  band No.  band energies     occupation 
      1     -12.0651      2.00000
      2      -0.9855      2.00000
      3       1.6693      2.00000
      4       3.0876      2.00000
      5      14.8710      0.00000
      6      15.6028      0.00000
      7      19.2286      0.00000
      8      22.5380      0.00000

 k-point  18 :      -0.3333    0.2222    0.0000
  band No.  band energies     occupation 
      1      -8.3844      2.00000
      2       0.0529      2.00000
      3       3.9451      2.00000
      4       5.6605      2.00000
      5      17.3162      0.00000
      6      19.5338      0.00000
      7      23.3432      0.00000
      8      29.9715      0.00000

 k-point  19 :      -0.2222    0.2222    0.0000
  band No.  band energies     occupation 
      1     -10.0019      2.00000
      2       0.5183      2.00000
      3       1.6979      2.00000
      4       3.0977      2.00000
      5      16.0262      0.00000
      6      17.6229      0.00000
      7      20.8891      0.00000
      8      29.9228      0.00000

 k-point  20 :       0.3333    0.3333    0.0000
  band No.  band energies     occupation 
      1     -11.0392      2.00000
      2       1.1793      2.00000
      3       5.7915      2.00000
      4       8.5317      2.00000
      5      14.2972     -0.12998
      6      19.9852      0.00000
      7      26.1725      0.00000
      8      30.8735      0.00000

 k-point  21 :       0.4444    0.3333    0.0000
  band No.  band energies     occupation 
      1     -11.6554      2.00000
      2      -0.6621      2.00000
      3       1.4047      2.00000
      4       1.5953      2.00000
      5      14.7246     -0.02770
      6      15.0925      0.00000
      7      19.4692      0.00000
      8      25.9460      0.00000

 k-point  22 :      -0.4444    0.3333    0.0000
  band No.  band energies     occupation 
      1     -11.5731      2.00000
      2      -0.5839      2.00000
      3       0.9336      2.00000
      4       2.2858      2.00000
      5      15.4685      0.00000
      6      16.7492      0.00000
      7      20.8181      0.00000
      8      24.3594      0.00000

 k-point  23 :      -0.3333    0.3333    0.0000
  band No.  band energies     occupation 
      1     -11.5246      2.00000
      2      -0.1970      2.00000
      3       1.2636      2.00000
      4       3.0630      2.00000
      5      15.0418      0.00000
      6      17.3968      0.00000
      7      19.6101      0.00000
      8      24.8771      0.00000

 k-point  24 :       0.4444    0.4444    0.0000
  band No.  band energies     occupation 
      1     -10.0605      2.00000
      2       0.1847      2.00000
      3       4.3334      2.00000
      4       7.6067      2.00000
      5      14.7420      0.00000
      6      16.8113      0.00000
      7      24.7847      0.00000
      8      34.3455      0.00000

 k-point  25 :      -0.4444    0.4444    0.0000
  band No.  band energies     occupation 
      1     -11.3674      2.00000
      2      -0.0007      2.00000
      3       2.6505      2.00000
      4       3.5944      2.00000
      5      14.8654      0.00000
      6      15.6473      0.00000
      7      19.5561      0.00000
      8      25.6342      0.00000

 k-point  26 :       0.3333    0.2222    0.1111
  band No.  band energies     occupation 
      1     -11.9531      2.00000
      2       1.0444      2.00000
      3       2.5780      2.00000
      4      12.9180      1.99386
      5      18.9314     -0.11736
      6      24.0296      0.00000
      7      26.1889      0.00000
      8      31.2681      0.00000

 k-point  27 :       0.4444    0.2222    0.1111
  band No.  band energies     occupation 
      1     -11.8609      2.00000
      2       0.1162      2.00000
      3       4.2522      2.00000
      4       6.1092      2.00000
      5      15.0749     -0.00018
      6      21.2929      0.00000
      7      24.1248      0.00000
      8      28.2651      0.00000

 k-point  28 :      -0.4444    0.2222    0.1111
  band No.  band energies     occupation 
      1      -8.2534      2.00000
      2      -0.3253      2.00000
      3       3.6613      2.00000
      4       5.4893      2.00000
      5      16.9464      0.00000
      6      18.9546      0.00000
      7      30.6602      0.00000
      8      32.2367      0.00000

 k-point  29 :       0.4444    0.3333    0.1111
  band No.  band energies     occupation 
      1     -11.5943      2.00000
      2       0.8982      2.00000
      3       2.3077      2.00000
      4       5.4110      2.00000
      5      13.6826      0.12841
      6      18.9006      0.00000
      7      21.9823      0.00000
      8      26.8160      0.00000

 k-point  30 :      -0.4444    0.3333    0.1111
  band No.  band energies     occupation 
      1     -11.6877      2.00000
      2      -0.3528      2.00000
      3       0.7655      2.00000
      4       2.5916      2.00000
      5      14.9722      0.00000
      6      16.2081      0.00000
      7      17.8963      0.00000
      8      23.3003      0.00000

 k-point  31 :      -0.3333    0.3333    0.1111
  band No.  band energies     occupation 
      1     -10.8251      2.00000
      2       0.4936      2.00000
      3       3.3158      2.00000
      4       9.4582      2.00000
      5      17.2086      0.00000
      6      22.0510      0.00000
      7      24.5388      0.00000
      8      31.3235      0.00000

 k-point  32 :      -0.2222    0.3333    0.1111
  band No.  band energies     occupation 
      1     -11.1199      2.00000
      2      -0.3048      2.00000
      3       1.3086      2.00000
      4       3.5669      2.00000
      5      14.8788      0.00000
      6      17.0145      0.00000
      7      21.5430      0.00000
      8      23.8813      0.00000

 k-point  33 :      -0.4444    0.4444    0.1111
  band No.  band energies     occupation 
      1      -7.4699      2.00000
      2       1.4717      2.00000
      3       2.7035      2.00000
      4       8.3282      2.00000
      5      16.6541      0.00000
      6      17.5956      0.00000
      7      23.7896      0.00000
      8      38.1957      0.00000

 k-point  34 :      -0.3333    0.4444    0.1111
  band No.  band energies     occupation 
      1      -9.1206      2.00000
      2       1.8203      2.00000
      3       3.6685      2.00000
      4       9.7672      2.00000
      5      18.3622      0.00000
      6      18.9169      0.00000
      7      25.2011      0.00000
      8      27.7382      0.00000

 k-point  35 :      -0.3333    0.4444    0.2222
  band No.  band energies     occupation 
      1     -11.6139      2.00000
      2       0.9730      2.00000
      3       2.5398      2.00000
      4       7.1621      2.00000
      5      18.1819      0.00000
      6      22.7729      0.00000
      7      29.6039      0.00000
      8      32.3124      0.00000


----------------------------------------- Iteration    1(   2)  ---------------------------------------


     EDDAV:  cpu time    0.15: real time    0.21
 BZINTS: Fermi energy:  2.133397;  8.000000 electrons
         Band energy: -24.690468;  BLOECHL correction:  0.000000
       DOS:  cpu time    0.00: real time    0.00
    --------------------------------------------
      LOOP:  cpu time    0.15: real time    0.21

 eigenvalue-minimisations  :   712
 total energy-change (2. order) :-0.2409473E+02  (-0.2397839E+02)
 number of electron       8.0000000 magnetization 
 augmentation part        8.0000000 magnetization 

 Free energy of the ion-electron system (eV)
  ---------------------------------------------------
  alpha Z        PSCENC =         4.16166101
  Ewald energy   TEWEN  =      -358.19654049
  -1/2 Hartree   DENC   =      -120.10072346
  -exchange  EXHF       =         0.00000000
  -V(xc)+E(xc)   XCENC  =        20.77497527
  PAW double counting   =       257.02161424     -248.12242250
  entropy T*S    EENTRO =         0.00000000
  eigenvalues    EBANDS =       -24.69046752
  atomic energy  EATOM  =       454.60906019
  ---------------------------------------------------
  free energy    TOTEN  =       -14.54284328 eV

  energy without entropy =      -14.54284328  energy(sigma->0) =      -14.54284328


--------------------------------------------------------------------------------------------------------


 E-fermi :   2.1334     XC(G=0): -11.4131     alpha+bet :-14.9973


 k-point   1 :       0.0000    0.0000    0.0000
  band No.  band energies     occupation 
      1     -14.6782      2.00000
      2       1.8853      2.00000
      3       1.8951      2.00000
      4       1.9394      2.00000
      5       8.5768      0.00000
      6      20.1775      0.00000
      7      20.2793      0.00000
      8      20.3935      0.00000

 k-point   2 :       0.1111    0.0000    0.0000
  band No.  band energies     occupation 
      1     -14.5675      2.00000
      2       1.3716      2.00000
      3       1.8205      2.00000
      4       1.8391      2.00000
      5       9.1423      0.00000
      6      18.6973      0.00000
      7      20.4441      0.00000
      8      20.9152      0.00000

 k-point   3 :       0.2222    0.0000    0.0000
  band No.  band energies     occupation 
      1     -14.2757      2.00000
      2       0.2246      2.00000
      3       1.6649      2.00000
      4       1.7132      2.00000
      5      10.3581      0.00000
      6      17.0296      0.00000
      7      20.9388      0.00000
      8      21.6162      0.00000

 k-point   4 :       0.3333    0.0000    0.0000
  band No.  band energies     occupation 
      1     -13.9189      2.00000
      2      -0.8921      2.00000
      3       1.5224      2.00000
      4       1.5592      2.00000
      5      11.4812      0.00000
      6      15.8941      0.00000
      7      20.9935      0.00000
      8      21.7118      0.00000

 k-point   5 :       0.4444    0.0000    0.0000
  band No.  band energies     occupation 
      1     -13.6126      2.00000
      2      -1.5797      2.00000
      3       1.3838      2.00000
      4       1.3906      2.00000
      5      12.0460      0.00000
      6      15.5064      0.00000
      7      20.7062      0.00000
      8      20.8077      0.00000

 k-point   6 :       0.1111    0.1111    0.0000
  band No.  band energies     occupation 
      1     -14.5118      2.00000
      2       1.3021      2.00000
      3       1.7516      2.00000
      4       1.7593      2.00000
      5       9.3479      0.00000
      6      18.3517      0.00000
      7      20.5778      0.00000
      8      20.7381      0.00000

[...]
    FORNL :  cpu time    0.03: real time    0.03
    FORCOR:  cpu time    0.00: real time    0.00
    FORLOC:  cpu time    0.00: real time    0.00
    FORNL :  cpu time    0.03: real time    0.03
    FORCOR:  cpu time    0.00: real time    0.00
    FORNLD:  cpu time    0.02: real time    0.02


      POSITION         DIRECTION 2           BORN EFFECTIVE CHARGE    (rigid.aug.   ionic)
 -----------------------------------------------------------------------------------------
      0.00000      0.00000      0.00000     0.00000  1.96085  0.00000 ( -0.01219  2.00000)
      2.10600      2.10600      2.10600     0.00000 -1.96141  0.00000 ( -0.67352  6.00000)
 -----------------------------------------------------------------------------------------
    total drift (improves with k-points):   0.00000 -0.00056  0.00000




--------------------------------------------------------------------------------------------------------


 Linear response to external field, progress :
  Direction:   3
  LATTYP: Found a face centered cubic cell.
 ALAT       =     4.2120000000
  
  Lattice vectors:
  
 A1 = (   0.0000000000,   2.1060000000,   2.1060000000)
 A2 = (   2.1060000000,   0.0000000000,   2.1060000000)
 A3 = (   2.1060000000,   2.1060000000,   0.0000000000)
 Subroutine PRICEL returns:
 Original cell was already a primitive cell.
 

Analysis of symmetry for initial positions (statically):

 Routine SETGRP: Setting up the symmetry group for a 
 face centered cubic supercell.


 Subroutine GETGRP returns: Found 48 space group operations
 (whereof 48 operations were pure point group operations)
 out of a pool of 48 trial point group operations.


The static configuration has the point symmetry O_h .

Analysis of symmetry for dynamics (positions and initial velocities):

 Subroutine DYNSYM returns: Found  8 space group operations
 (whereof  8 operations were pure point group operations)
 out of a pool of 48 trial space group operations
 (whereof 48 operations were pure point group operations)
 and found also     1 'primitive' translations


The dynamic configuration has the point symmetry C_4v.


----------------------------------------- Iteration    3(   1)  ---------------------------------------


   POT+DIJ:  cpu time    0.01: real time    0.01
    HAMIL1:  cpu time    0.07: real time    0.07
    LRDIAG:  cpu time    0.02: real time    0.02
    LRDIIS:  cpu time    0.34: real time    0.35
    LRDIAG:  cpu time    0.01: real time    0.01
    --------------------------------------------
      LOOP:  cpu time    0.45: real time    0.45

 Free energy of the ion-electron system (eV)
  ---------------------------------------------------
  -1/2 Hartree   DENC   =         0.00000000
  -V(xc)+E(xc)   XCENC  =         0.00000000
  PAW double counting   =         0.00000000        0.00000000
  entropy T*S    EENTRO =         0.00000000
  eigenvalues    EBANDS =        -0.11474171
  ---------------------------------------------------
  free energy    TOTEN  =        -0.11474171 eV

  energy without entropy =       -0.11474171


----------------------------------------- Iteration    3(   2)  ---------------------------------------


   POT+DIJ:  cpu time    0.01: real time    0.01
    HAMIL1:  cpu time    0.07: real time    0.07
    LRDIAG:  cpu time    0.01: real time    0.02
    LRDIIS:  cpu time    0.27: real time    0.27
    LRDIAG:  cpu time    0.01: real time    0.01
    MIXING:  cpu time    0.00: real time    0.00
    --------------------------------------------
      LOOP:  cpu time    0.43: real time    0.43

 Broyden mixing:
  rms(total) = 0.53693E-01    rms(broyden)= 0.53669E-01
  rms(prec ) = 0.16428E+00
  weight for this iteration     100.00

 Free energy of the ion-electron system (eV)
  ---------------------------------------------------
  -1/2 Hartree   DENC   =         0.00000000
  -V(xc)+E(xc)   XCENC  =         0.00000000
  PAW double counting   =         0.00000000        0.00000000
  entropy T*S    EENTRO =         0.00000000
  eigenvalues    EBANDS =        -0.11687654
  ---------------------------------------------------
  free energy    TOTEN  =        -0.11687654 eV

  energy without entropy =       -0.11687654


----------------------------------------- Iteration    3(   3)  ---------------------------------------


   POT+DIJ:  cpu time    0.01: real time    0.01
    HAMIL1:  cpu time    0.07: real time    0.07
    LRDIAG:  cpu time    0.01: real time    0.02
    LRDIIS:  cpu time    0.28: real time    0.28
    LRDIAG:  cpu time    0.01: real time    0.01
    MIXING:  cpu time    0.00: real time    0.00
    --------------------------------------------
      LOOP:  cpu time    0.44: real time    0.44

 Broyden mixing:
  rms(total) = 0.31459E-01    rms(broyden)= 0.31458E-01
  rms(prec ) = 0.95692E-01
  weight for this iteration     100.00

 eigenvalues of (default mixing * dielectric matrix)
  average eigenvalue GAMMA=   2.3960
  2.3960

 Free energy of the ion-electron system (eV)
  ---------------------------------------------------
  -1/2 Hartree   DENC   =        -0.00223044
  -V(xc)+E(xc)   XCENC  =         0.00002765
  PAW double counting   =         0.00117812       -0.00117545
  entropy T*S    EENTRO =         0.00000000
  eigenvalues    EBANDS =        -0.11180114
  ---------------------------------------------------
  free energy    TOTEN  =        -0.11400125 eV

  energy without entropy =       -0.11400125


----------------------------------------- Iteration    3(   4)  ---------------------------------------


   POT+DIJ:  cpu time    0.01: real time    0.01
    HAMIL1:  cpu time    0.07: real time    0.07
    LRDIAG:  cpu time    0.02: real time    0.02
    LRDIIS:  cpu time    0.27: real time    0.27
    LRDIAG:  cpu time    0.01: real time    0.01
    MIXING:  cpu time    0.00: real time    0.00
    --------------------------------------------
      LOOP:  cpu time    0.43: real time    0.43

 Broyden mixing:
  rms(total) = 0.24489E-02    rms(broyden)= 0.24477E-02
  rms(prec ) = 0.62786E-02
  weight for this iteration     100.00

 eigenvalues of (default mixing * dielectric matrix)
  average eigenvalue GAMMA=   2.3048
  2.3048  2.3048

 Free energy of the ion-electron system (eV)
  ---------------------------------------------------
  -1/2 Hartree   DENC   =        -0.01270859
  -V(xc)+E(xc)   XCENC  =         0.00016133
  PAW double counting   =         0.00686995       -0.00685310
  entropy T*S    EENTRO =         0.00000000
  eigenvalues    EBANDS =        -0.10560531
  ---------------------------------------------------
  free energy    TOTEN  =        -0.11813572 eV

  energy without entropy =       -0.11813572


----------------------------------------- Iteration    3(   5)  ---------------------------------------


   POT+DIJ:  cpu time    0.01: real time    0.01
    HAMIL1:  cpu time    0.07: real time    0.07
    LRDIAG:  cpu time    0.01: real time    0.02
    LRDIIS:  cpu time    0.29: real time    0.29
    LRDIAG:  cpu time    0.01: real time    0.01
    MIXING:  cpu time    0.00: real time    0.00
    --------------------------------------------
      LOOP:  cpu time    0.45: real time    0.45

 Broyden mixing:
  rms(total) = 0.43866E-03    rms(broyden)= 0.43827E-03
  rms(prec ) = 0.93691E-03
  weight for this iteration     100.00

 eigenvalues of (default mixing * dielectric matrix)
  average eigenvalue GAMMA=   2.1549
  1.5813  2.6293  2.2540

 Free energy of the ion-electron system (eV)
  ---------------------------------------------------
  -1/2 Hartree   DENC   =        -0.01291954
  -V(xc)+E(xc)   XCENC  =         0.00016876
  PAW double counting   =         0.00709512       -0.00707659
  entropy T*S    EENTRO =         0.00000000
  eigenvalues    EBANDS =        -0.10577379
  ---------------------------------------------------
  free energy    TOTEN  =        -0.11850604 eV

  energy without entropy =       -0.11850604


----------------------------------------- Iteration    3(   6)  ---------------------------------------


   POT+DIJ:  cpu time    0.01: real time    0.01
    HAMIL1:  cpu time    0.07: real time    0.07
    LRDIAG:  cpu time    0.02: real time    0.02
    LRDIIS:  cpu time    0.31: real time    0.31
    LRDIAG:  cpu time    0.01: real time    0.01
    MIXING:  cpu time    0.00: real time    0.00
    --------------------------------------------
      LOOP:  cpu time    0.47: real time    0.47

 Broyden mixing:
  rms(total) = 0.18535E-03    rms(broyden)= 0.18531E-03
  rms(prec ) = 0.37912E-03
  weight for this iteration     100.00

 eigenvalues of (default mixing * dielectric matrix)
  average eigenvalue GAMMA=   1.9922
  2.6615  2.3603  2.0011  0.9459

 Free energy of the ion-electron system (eV)
  ---------------------------------------------------
  -1/2 Hartree   DENC   =        -0.01295937
  -V(xc)+E(xc)   XCENC  =         0.00016994
  PAW double counting   =         0.00708343       -0.00706516
  entropy T*S    EENTRO =         0.00000000
  eigenvalues    EBANDS =        -0.10579015
  ---------------------------------------------------
  free energy    TOTEN  =        -0.11856130 eV

  energy without entropy =       -0.11856130


----------------------------------------- Iteration    3(   7)  ---------------------------------------


   POT+DIJ:  cpu time    0.01: real time    0.01
    HAMIL1:  cpu time    0.07: real time    0.07
    LRDIAG:  cpu time    0.01: real time    0.02
    LRDIIS:  cpu time    0.30: real time    0.30
    LRDIAG:  cpu time    0.01: real time    0.01
    MIXING:  cpu time    0.00: real time    0.00
    --------------------------------------------
      LOOP:  cpu time    0.46: real time    0.46

 Broyden mixing:
  rms(total) = 0.22447E-04    rms(broyden)= 0.22441E-04
  rms(prec ) = 0.48618E-04
  weight for this iteration     100.00

 eigenvalues of (default mixing * dielectric matrix)
  average eigenvalue GAMMA=   1.9304
  2.6899  2.3423  0.9235  1.8481  1.8481

 Free energy of the ion-electron system (eV)
  ---------------------------------------------------
  -1/2 Hartree   DENC   =        -0.01295763
  -V(xc)+E(xc)   XCENC  =         0.00017011
  PAW double counting   =         0.00703943       -0.00702160
  entropy T*S    EENTRO =         0.00000000
  eigenvalues    EBANDS =        -0.10579980
  ---------------------------------------------------
  free energy    TOTEN  =        -0.11856949 eV

  energy without entropy =       -0.11856949


----------------------------------------- Iteration    3(   8)  ---------------------------------------


   POT+DIJ:  cpu time    0.01: real time    0.01
    HAMIL1:  cpu time    0.07: real time    0.07
    LRDIAG:  cpu time    0.01: real time    0.02
    LRDIIS:  cpu time    0.29: real time    0.29
    LRDIAG:  cpu time    0.01: real time    0.01
    MIXING:  cpu time    0.00: real time    0.00
    --------------------------------------------
      LOOP:  cpu time    0.44: real time    0.44

 Broyden mixing:
  rms(total) = 0.45626E-05    rms(broyden)= 0.45601E-05
  rms(prec ) = 0.12132E-04
  weight for this iteration     100.00

 eigenvalues of (default mixing * dielectric matrix)
  average eigenvalue GAMMA=   1.9520
  2.6570  2.5616  2.4184  2.0737  0.9550  1.0462

 Free energy of the ion-electron system (eV)
  ---------------------------------------------------
  -1/2 Hartree   DENC   =        -0.01296027
  -V(xc)+E(xc)   XCENC  =         0.00017015
  PAW double counting   =         0.00704444       -0.00702657
  entropy T*S    EENTRO =         0.00000000
  eigenvalues    EBANDS =        -0.10579920
  ---------------------------------------------------
  free energy    TOTEN  =        -0.11857145 eV

  energy without entropy =       -0.11857145


----------------------------------------- Iteration    3(   9)  ---------------------------------------


   POT+DIJ:  cpu time    0.01: real time    0.01
    HAMIL1:  cpu time    0.07: real time    0.07
    LRDIAG:  cpu time    0.01: real time    0.02
    LRDIIS:  cpu time    0.24: real time    0.24
    LRDIAG:  cpu time    0.01: real time    0.01
    MIXING:  cpu time    0.00: real time    0.00
    --------------------------------------------
      LOOP:  cpu time    0.40: real time    0.40

 Broyden mixing:
  rms(total) = 0.34471E-05    rms(broyden)= 0.34468E-05
  rms(prec ) = 0.86148E-05
  weight for this iteration     100.00

 eigenvalues of (default mixing * dielectric matrix)
  average eigenvalue GAMMA=   1.8150
  2.6587  2.6587  2.3329  1.9189  1.1897  0.9733  0.9733

 Free energy of the ion-electron system (eV)
  ---------------------------------------------------
  -1/2 Hartree   DENC   =        -0.01296031
  -V(xc)+E(xc)   XCENC  =         0.00017016
  PAW double counting   =         0.00704479       -0.00702693
  entropy T*S    EENTRO =         0.00000000
  eigenvalues    EBANDS =        -0.10579957
  ---------------------------------------------------
  free energy    TOTEN  =        -0.11857186 eV

  energy without entropy =       -0.11857186


------------------------ aborting loop because EDIFF is reached ----------------------------------------


 change of polarisation eV/A/(eV/A) component  3 :     0.057    -0.041     0.222
 dielectric tensor                  component  3 :     0.554    -0.395     3.147


--------------------------------------------------------------------------------------------------------


    FORLOC:  cpu time    0.00: real time    0.00
    FORNL :  cpu time    0.03: real time    0.03
    FORCOR:  cpu time    0.00: real time    0.00
    FORLOC:  cpu time    0.00: real time    0.00
    FORNL :  cpu time    0.02: real time    0.03
    FORCOR:  cpu time    0.00: real time    0.00
    FORNLD:  cpu time    0.02: real time    0.02


      POSITION         DIRECTION 3           BORN EFFECTIVE CHARGE    (rigid.aug.   ionic)
 -----------------------------------------------------------------------------------------
      0.00000      0.00000      0.00000     0.00000  0.00000  1.96085 ( -0.01219  2.00000)
      2.10600      2.10600      2.10600     0.00000  0.00000 -1.96141 ( -0.67352  6.00000)
 -----------------------------------------------------------------------------------------
    total drift (improves with k-points):   0.00000  0.00000 -0.00056




--------------------------------------------------------------------------------------------------------


  LATTYP: Found a face centered cubic cell.
 ALAT       =     4.2120000000
  
  Lattice vectors:
  
 A1 = (   0.0000000000,   2.1060000000,   2.1060000000)
 A2 = (   2.1060000000,   0.0000000000,   2.1060000000)
 A3 = (   2.1060000000,   2.1060000000,   0.0000000000)
 Subroutine PRICEL returns:
 Original cell was already a primitive cell.
 

Analysis of symmetry for initial positions (statically):

 Routine SETGRP: Setting up the symmetry group for a 
 face centered cubic supercell.


 Subroutine GETGRP returns: Found 48 space group operations
 (whereof 48 operations were pure point group operations)
 out of a pool of 48 trial point group operations.


The static configuration has the point symmetry O_h .

Analysis of symmetry for dynamics (positions and initial velocities):

 Subroutine DYNSYM returns: Found 48 space group operations
 (whereof 48 operations were pure point group operations)
 out of a pool of 48 trial space group operations
 (whereof 48 operations were pure point group operations)
 and found also     1 'primitive' translations


The dynamic configuration has the point symmetry O_h .


 MACROSCOPIC STATIC DIELECTRIC TENSOR (including local field effects in DFT)
 ---------------------------------------------
           3.147     0.000     0.000
           0.000     3.147     0.000
           0.000     0.000     3.147
 ---------------------------------------------



--------------------------------------------------------------------------------------------------------


  LATTYP: Found a face centered cubic cell.
 ALAT       =     4.2120000000
  
  Lattice vectors:
  
 A1 = (   0.0000000000,   2.1060000000,   2.1060000000)
 A2 = (   2.1060000000,   0.0000000000,   2.1060000000)
 A3 = (   2.1060000000,   2.1060000000,   0.0000000000)
 Subroutine PRICEL returns:
 Original cell was already a primitive cell.
 

Analysis of symmetry for initial positions (statically):

 Routine SETGRP: Setting up the symmetry group for a 
 face centered cubic supercell.


 Subroutine GETGRP returns: Found 48 space group operations
 (whereof 48 operations were pure point group operations)
 out of a pool of 48 trial point group operations.


The static configuration has the point symmetry O_h .

Analysis of symmetry for dynamics (positions and initial velocities):

 Subroutine DYNSYM returns: Found 48 space group operations
 (whereof 48 operations were pure point group operations)
 out of a pool of 48 trial space group operations
 (whereof 48 operations were pure point group operations)
 and found also     1 'primitive' translations


The dynamic configuration has the point symmetry O_h .


--------------------------------------------------------------------------------------------------------




 MACROSCOPIC STATIC DIELECTRIC TENSOR (including local field effects in DFT)
 ---------------------------------------------
           3.147     0.000     0.000
           0.000     3.147     0.000
           0.000     0.000     3.147
 ---------------------------------------------


 PIEZOELECTRIC TENSOR  for field in x, y, z        (e  Angst)
          XX          YY          ZZ          XY          YZ          ZX
  --------------------------------------------------------------------------------
  x     0.00000     0.00000     0.00000     0.00000     0.00000     0.00000
  y     0.00000     0.00000     0.00000     0.00000     0.00000     0.00000
  z     0.00000     0.00000     0.00000     0.00000     0.00000     0.00000

 PIEZOELECTRIC TENSOR  for field in x, y, z        (C/m^2)
          XX          YY          ZZ          XY          YZ          ZX
  --------------------------------------------------------------------------------
  x     0.00000     0.00000     0.00000     0.00000     0.00000     0.00000
  y     0.00000     0.00000     0.00000     0.00000     0.00000     0.00000
  z     0.00000     0.00000     0.00000     0.00000     0.00000     0.00000

 BORN EFFECTIVE CHARGES (in e, cummulative output)
 -------------------------------------------------
 ion    1
    1     1.96085     0.00000     0.00000
    2     0.00000     1.96085     0.00000
    3     0.00000     0.00000     1.96085
 ion    2
    1    -1.96142     0.00000     0.00000
    2     0.00000    -1.96141     0.00000
    3     0.00000     0.00000    -1.96141


--------------------------------------------------------------------------------------------------------


 writing wavefunctions
     LOOP+:  cpu time   20.48: real time   20.97
    4ORBIT:  cpu time    0.00: real time    0.00
 BZINTS: Fermi energy:  4.829276;  8.000000 electrons
         Band energy:  -5.666749;  BLOECHL correction:  0.000000

 total amount of memory used by VASP on root node    33547. kBytes
========================================================================

   base      :      30000. kBytes
   nonl-proj :       2237. kBytes
   fftplans  :        217. kBytes
   grid      :        801. kBytes
   one-center:          6. kBytes
   wavefun   :        286. kBytes

  
  
 General timing and accounting informations for this job:
 ========================================================
  
                  Total CPU time used (sec):       21.794
                            User time (sec):       20.923
                          System time (sec):        0.871
                         Elapsed time (sec):       23.925
  
                   Maximum memory used (kb):       34916.
                   Average memory used (kb):           0.
  
                          Minor page faults:       701189
                          Major page faults:            0
                 Voluntary context switches:        13088
