<?xml version="1.0" encoding="ISO-8859-1"?>
<modeling>
 <generator>
  <i name="program" type="string">vasp </i>
  <i name="version" type="string">5.2.12  </i>
  <i name="subversion" type="string">26May11 complex  parallel </i>
  <i name="platform" type="string">unknown </i>
  <i name="date" type="string">2013 05 12 </i>
  <i name="time" type="string">12:57:20 </i>
 </generator>
 <incar>
  <i type="string" name="PREC">h</i>
  <i type="int" name="IBRION">    -1</i>
  <i name="EDIFF">      0.00000100</i>
  <i type="int" name="NSW">     0</i>
  <i type="int" name="ISIF">     0</i>
  <i type="int" name="ISMEAR">    -5</i>
  <i type="logical" name="LPEAD"> F  </i>
  <i type="logical" name="LCALCPOL"> F  </i>
  <i type="logical" name="LCALCEPS"> F  </i>
  <v name="EFIELD_PEAD">      0.00000000      0.00000000      0.00000000</v>
  <i type="logical" name="LEFG"> F  </i>
  <v name="QUAD_EFG">      1.00000000      1.00000000</v>
  <i type="logical" name="LEPSILON"> T  </i>
  <i type="logical" name="LRHFATM"> F  </i>
  <i type="string" name="METAGGA">--</i>
  <i type="int" name="LMAXTAU">     0</i>
 </incar>
 <kpoints>
  <generation param="Gamma">
   <v type="int" name="divisions">       9        9        9 </v>
   <v name="usershift">      0.00000000       0.00000000       0.00000000 </v>
   <v name="genvec1">      0.11111111       0.00000000       0.00000000 </v>
   <v name="genvec2">      0.00000000       0.11111111       0.00000000 </v>
   <v name="genvec3">      0.00000000       0.00000000       0.11111111 </v>
   <v name="shift">      0.00000000       0.00000000       0.00000000 </v>
  </generation>
  <varray name="kpointlist" >
   <v>       0.00000000       0.00000000       0.00000000 </v>
   <v>       0.11111111       0.00000000       0.00000000 </v>
   <v>       0.22222222       0.00000000       0.00000000 </v>
   <v>       0.33333333       0.00000000       0.00000000 </v>
   <v>       0.44444444       0.00000000       0.00000000 </v>
   <v>       0.11111111       0.11111111       0.00000000 </v>
   <v>       0.22222222       0.11111111       0.00000000 </v>
   <v>       0.33333333       0.11111111       0.00000000 </v>
   <v>       0.44444444       0.11111111       0.00000000 </v>
   <v>      -0.44444444       0.11111111       0.00000000 </v>
   <v>      -0.33333333       0.11111111       0.00000000 </v>
   <v>      -0.22222222       0.11111111       0.00000000 </v>
   <v>      -0.11111111       0.11111111       0.00000000 </v>
   <v>       0.22222222       0.22222222       0.00000000 </v>
   <v>       0.33333333       0.22222222       0.00000000 </v>
   <v>       0.44444444       0.22222222       0.00000000 </v>
   <v>      -0.44444444       0.22222222       0.00000000 </v>
   <v>      -0.33333333       0.22222222       0.00000000 </v>
   <v>      -0.22222222       0.22222222       0.00000000 </v>
   <v>       0.33333333       0.33333333       0.00000000 </v>
   <v>       0.44444444       0.33333333       0.00000000 </v>
   <v>      -0.44444444       0.33333333       0.00000000 </v>
   <v>      -0.33333333       0.33333333       0.00000000 </v>
   <v>       0.44444444       0.44444444       0.00000000 </v>
   <v>      -0.44444444       0.44444444       0.00000000 </v>
   <v>       0.33333333       0.22222222       0.11111111 </v>
   <v>       0.44444444       0.22222222       0.11111111 </v>
   <v>      -0.44444444       0.22222222       0.11111111 </v>
   <v>       0.44444444       0.33333333       0.11111111 </v>
   <v>      -0.44444444       0.33333333       0.11111111 </v>
   <v>      -0.33333333       0.33333333       0.11111111 </v>
   <v>      -0.22222222       0.33333333       0.11111111 </v>
   <v>      -0.44444444       0.44444444       0.11111111 </v>
   <v>      -0.33333333       0.44444444       0.11111111 </v>
   <v>      -0.33333333       0.44444444       0.22222222 </v>
  </varray>
  <varray name="weights" >
   <v>       0.00137174 </v>
   <v>       0.01097394 </v>
   <v>       0.01097394 </v>
   <v>       0.01097394 </v>
   <v>       0.01097394 </v>
   <v>       0.00823045 </v>
   <v>       0.03292181 </v>
   <v>       0.03292181 </v>
   <v>       0.03292181 </v>
   <v>       0.03292181 </v>
   <v>       0.03292181 </v>
   <v>       0.03292181 </v>
   <v>       0.01646091 </v>
   <v>       0.00823045 </v>
   <v>       0.03292181 </v>
   <v>       0.03292181 </v>
   <v>       0.03292181 </v>
   <v>       0.03292181 </v>
   <v>       0.01646091 </v>
   <v>       0.00823045 </v>
   <v>       0.03292181 </v>
   <v>       0.03292181 </v>
   <v>       0.01646091 </v>
   <v>       0.00823045 </v>
   <v>       0.01646091 </v>
   <v>       0.03292181 </v>
   <v>       0.06584362 </v>
   <v>       0.06584362 </v>
   <v>       0.03292181 </v>
   <v>       0.06584362 </v>
   <v>       0.06584362 </v>
   <v>       0.03292181 </v>
   <v>       0.03292181 </v>
   <v>       0.03292181 </v>
   <v>       0.03292181 </v>
  </varray>
  <varray name="tetrahedronlist"  type="int" >
   <v type="int" >       24        1        2        2        6 </v>
   <v type="int" >       48        2        6        7       13 </v>
   <v type="int" >       48        2        3        7       13 </v>
   <v type="int" >       24        2        2        6       13 </v>
   <v type="int" >       48        3        7        8       12 </v>
   <v type="int" >       48        3        4        8       12 </v>
   <v type="int" >       48        3        7       12       13 </v>
   <v type="int" >       48        4        8        9       11 </v>
   <v type="int" >       48        4        5        9       11 </v>
   <v type="int" >       48        4        8       11       12 </v>
   <v type="int" >       48        5        9       10       10 </v>
   <v type="int" >       24        5        5       10       10 </v>
   <v type="int" >       48        5        9       10       11 </v>
   <v type="int" >       24        6        7        7       14 </v>
   <v type="int" >       24        6        7        7       13 </v>
   <v type="int" >       48        7       14       15       26 </v>
   <v type="int" >       48        7        8       15       26 </v>
   <v type="int" >       48        7        8       12       26 </v>
   <v type="int" >       24        7        7       14       26 </v>
   <v type="int" >       24        7        7       13       26 </v>
   <v type="int" >       48        7       12       13       26 </v>
   <v type="int" >       48        8       15       16       27 </v>
   <v type="int" >       48        8        9       16       27 </v>
   <v type="int" >       48        8        9       11       27 </v>
   <v type="int" >       48        8       15       26       27 </v>
   <v type="int" >       48        8       12       26       27 </v>
   <v type="int" >       48        8       11       12       27 </v>
   <v type="int" >       48        9       16       17       28 </v>
   <v type="int" >       48        9       10       17       28 </v>
   <v type="int" >       48        9       10       10       28 </v>
   <v type="int" >       48        9       16       27       28 </v>
   <v type="int" >       48        9       11       27       28 </v>
   <v type="int" >       48        9       10       11       28 </v>
   <v type="int" >       48       10       17       18       28 </v>
   <v type="int" >       48       10       11       18       28 </v>
   <v type="int" >       48       10       17       28       28 </v>
   <v type="int" >       24       10       10       28       28 </v>
   <v type="int" >       48       11       18       19       27 </v>
   <v type="int" >       48       11       12       19       27 </v>
   <v type="int" >       48       11       18       27       28 </v>
   <v type="int" >       24       12       12       19       26 </v>
   <v type="int" >       24       12       12       13       26 </v>
   <v type="int" >       48       12       19       26       27 </v>
   <v type="int" >       24       14       15       15       20 </v>
   <v type="int" >       24       14       15       15       26 </v>
   <v type="int" >       48       15       20       21       29 </v>
   <v type="int" >       48       15       16       21       29 </v>
   <v type="int" >       48       15       16       27       29 </v>
   <v type="int" >       24       15       15       20       29 </v>
   <v type="int" >       24       15       15       26       29 </v>
   <v type="int" >       48       15       26       27       29 </v>
   <v type="int" >       48       16       21       22       30 </v>
   <v type="int" >       48       16       17       22       30 </v>
   <v type="int" >       48       16       17       28       30 </v>
   <v type="int" >       48       16       21       29       30 </v>
   <v type="int" >       48       16       27       29       30 </v>
   <v type="int" >       48       16       27       28       30 </v>
   <v type="int" >       48       17       22       23       31 </v>
   <v type="int" >       48       17       18       23       31 </v>
   <v type="int" >       48       17       18       28       31 </v>
   <v type="int" >       48       17       22       30       31 </v>
   <v type="int" >       48       17       28       30       31 </v>
   <v type="int" >       48       17       28       28       31 </v>
   <v type="int" >       24       18       18       23       32 </v>
   <v type="int" >       24       18       18       19       32 </v>
   <v type="int" >       48       18       19       27       32 </v>
   <v type="int" >       48       18       23       31       32 </v>
   <v type="int" >       48       18       28       31       32 </v>
   <v type="int" >       48       18       27       28       32 </v>
   <v type="int" >       24       19       27       27       32 </v>
   <v type="int" >       24       19       26       27       27 </v>
   <v type="int" >       24       20       21       21       24 </v>
   <v type="int" >       24       20       21       21       29 </v>
   <v type="int" >       48       21       24       25       33 </v>
   <v type="int" >       48       21       22       25       33 </v>
   <v type="int" >       48       21       22       30       33 </v>
   <v type="int" >       24       21       21       24       33 </v>
   <v type="int" >       24       21       21       29       33 </v>
   <v type="int" >       48       21       29       30       33 </v>
   <v type="int" >       24       22       22       25       34 </v>
   <v type="int" >       24       22       22       23       34 </v>
   <v type="int" >       48       22       23       31       34 </v>
   <v type="int" >       48       22       25       33       34 </v>
   <v type="int" >       48       22       30       33       34 </v>
   <v type="int" >       48       22       30       31       34 </v>
   <v type="int" >       24       23       31       31       34 </v>
   <v type="int" >       24       23       31       31       32 </v>
   <v type="int" >       12       24       24       25       25 </v>
   <v type="int" >       24       24       25       25       33 </v>
   <v type="int" >       12       25       25       33       33 </v>
   <v type="int" >       24       25       33       33       34 </v>
   <v type="int" >       24       26       27       27       29 </v>
   <v type="int" >       48       27       29       30       32 </v>
   <v type="int" >       48       27       28       30       32 </v>
   <v type="int" >       24       27       27       29       32 </v>
   <v type="int" >       48       28       30       31       31 </v>
   <v type="int" >       24       28       28       31       31 </v>
   <v type="int" >       48       28       30       31       32 </v>
   <v type="int" >       24       29       30       30       33 </v>
   <v type="int" >       24       29       30       30       32 </v>
   <v type="int" >       48       30       33       34       35 </v>
   <v type="int" >       48       30       31       34       35 </v>
   <v type="int" >       48       30       31       31       35 </v>
   <v type="int" >       24       30       30       33       35 </v>
   <v type="int" >       24       30       30       32       35 </v>
   <v type="int" >       48       30       31       32       35 </v>
   <v type="int" >       24       31       31       34       35 </v>
   <v type="int" >       24       31       31       32       35 </v>
   <v type="int" >       48       31       34       35       35 </v>
   <v type="int" >       24       31       31       35       35 </v>
   <v type="int" >       12       33       33       34       34 </v>
   <v type="int" >       24       33       34       34       35 </v>
   <v type="int" >       12       34       34       35       35 </v>
   <v type="int" >       24       34       35       35       35 </v>
   <v type="int" >        6       35       35       35       35 </v>
  </varray>
  <i name="volumeweight">      0.00022862 </i>
 </kpoints>
 <parameters>
  <separator name="general" >
   <i type="string" name="SYSTEM">unknown system</i>
   <i type="logical" name="LCOMPAT"> F  </i>
  </separator>
  <separator name="electronic" >
   <i type="string" name="PREC">h</i>
   <i name="ENMAX">    500.00000000</i>
   <i name="ENAUG">    605.39200000</i>
   <i name="EDIFF">      0.00000100</i>
   <i type="int" name="IALGO">    38</i>
   <i type="int" name="IWAVPR">    10</i>
   <i type="int" name="NBANDS">     8</i>
   <i name="NELECT">      8.00000000</i>
   <i type="int" name="TURBO">     0</i>
   <i type="int" name="IRESTART">     0</i>
   <i type="int" name="NREBOOT">     0</i>
   <i type="int" name="NMIN">     0</i>
   <i name="EREF">      0.00000000</i>
   <separator name="electronic smearing" >
    <i type="int" name="ISMEAR">    -5</i>
    <i name="SIGMA">      0.20000000</i>
    <i name="KSPACING">      0.50000000</i>
    <i type="logical" name="KGAMMA"> T  </i>
   </separator>
   <separator name="electronic projectors" >
    <i type="logical" name="LREAL"> F  </i>
    <v name="ROPT">      0.00000000      0.00000000</v>
    <i type="int" name="LMAXPAW">  -100</i>
    <i type="int" name="LMAXMIX">     2</i>
   </separator>
   <separator name="electronic startup" >
    <i type="int" name="ISTART">     0</i>
    <i type="int" name="ICHARG">     2</i>
    <i type="int" name="INIWAV">     1</i>
   </separator>
   <separator name="electronic spin" >
    <i type="int" name="ISPIN">     1</i>
    <i type="logical" name="LNONCOLLINEAR"> F  </i>
    <v name="MAGMOM">      1.00000000      1.00000000</v>
    <i name="NUPDOWN">     -1.00000000</i>
    <i type="logical" name="LSORBIT"> F  </i>
    <v name="SAXIS">      0.00000000      0.00000000      1.00000000</v>
    <i type="logical" name="LSPIRAL"> F  </i>
    <v name="QSPIRAL">      0.00000000      0.00000000      0.00000000</v>
    <i type="logical" name="LZEROZ"> F  </i>
   </separator>
   <separator name="electronic exchange-correlation" >
    <i type="logical" name="LASPH"> F  </i>
    <i type="logical" name="LMETAGGA"> F  </i>
   </separator>
   <separator name="electronic convergence" >
    <i type="int" name="NELM">    60</i>
    <i type="int" name="NELMDL">    -5</i>
    <i type="int" name="NELMIN">     2</i>
    <i name="ENINI">    500.00000000</i>
    <separator name="electronic convergence detail" >
     <i type="logical" name="LDIAG"> T  </i>
     <i type="logical" name="LSUBROT"> T  </i>
     <i name="WEIMIN">      0.00000000</i>
     <i name="EBREAK">      0.00000003</i>
     <i name="DEPER">      0.30000000</i>
     <i type="int" name="NRMM">     4</i>
     <i name="TIME">      0.40000000</i>
    </separator>
   </separator>
   <separator name="electronic mixer" >
    <i name="AMIX">      0.40000000</i>
    <i name="BMIX">      1.00000000</i>
    <i name="AMIN">      0.10000000</i>
    <i name="AMIX_MAG">      1.60000000</i>
    <i name="BMIX_MAG">      1.00000000</i>
    <separator name="electronic mixer details" >
     <i type="int" name="IMIX">     4</i>
     <i type="int" name="MAXMIX">   -45</i>
     <i name="WC">    100.00000000</i>
     <i type="int" name="INIMIX">     1</i>
     <i type="int" name="MIXPRE">     1</i>
     <i type="int" name="MREMOVE">     5</i>
    </separator>
   </separator>
   <separator name="electronic dipolcorrection" >
    <i type="logical" name="LDIPOL"> F  </i>
    <i type="logical" name="LMONO"> F  </i>
    <i type="int" name="IDIPOL">     0</i>
    <i name="EPSILON">      1.00000000</i>
    <v name="DIPOL">   -100.00000000   -100.00000000   -100.00000000</v>
    <i name="EFIELD">      0.00000000</i>
   </separator>
  </separator>
  <separator name="grids" >
   <i type="int" name="NGX">    24</i>
   <i type="int" name="NGY">    24</i>
   <i type="int" name="NGZ">    24</i>
   <i type="int" name="NGXF">    32</i>
   <i type="int" name="NGYF">    32</i>
   <i type="int" name="NGZF">    32</i>
   <i type="logical" name="ADDGRID"> F  </i>
  </separator>
  <separator name="ionic" >
   <i type="int" name="NSW">     0</i>
   <i type="int" name="IBRION">    -1</i>
   <i type="int" name="ISIF">     0</i>
   <i name="PSTRESS">      0.00000000</i>
   <i name="EDIFFG">      0.00001000</i>
   <i type="int" name="NFREE">     0</i>
   <i name="POTIM">      0.50000000</i>
   <i name="SMASS">     -3.00000000</i>
   <i name="SCALEE">      1.00000000</i>
  </separator>
  <separator name="ionic md" >
   <i name="TEBEG">      0.00010000</i>
   <i name="TEEND">      0.00010000</i>
   <i type="int" name="NBLOCK">     1</i>
   <i type="int" name="KBLOCK">     1</i>
   <i type="int" name="NPACO">   256</i>
   <i name="APACO">     16.00000000</i>
  </separator>
  <separator name="symmetry" >
   <i type="int" name="ISYM">     2</i>
   <i name="SYMPREC">      0.00001000</i>
  </separator>
  <separator name="dos" >
   <i type="logical" name="LORBIT"> F  </i>
   <v name="RWIGS">     -1.00000000     -1.00000000</v>
   <i type="int" name="NEDOS">   301</i>
   <i name="EMIN">     10.00000000</i>
   <i name="EMAX">    -10.00000000</i>
   <i name="EFERMI">      0.00000000</i>
  </separator>
  <separator name="writing" >
   <i type="int" name="NWRITE">     2</i>
   <i type="logical" name="LWAVE"> T  </i>
   <i type="logical" name="LCHARG"> T  </i>
   <i type="logical" name="LPARD"> F  </i>
   <i type="logical" name="LVTOT"> F  </i>
   <i type="logical" name="LVHAR"> F  </i>
   <i type="logical" name="LELF"> F  </i>
   <i type="logical" name="LOPTICS"> F  </i>
   <v name="STM">      0.00000000      0.00000000      0.00000000      0.00000000      0.00000000      0.00000000      0.00000000</v>
  </separator>
  <separator name="performance" >
   <i type="int" name="NPAR">     8</i>
   <i type="int" name="NSIM">     4</i>
   <i type="int" name="NBLK">    -1</i>
   <i type="logical" name="LPLANE"> T  </i>
   <i type="logical" name="LSCALAPACK"> T  </i>
   <i type="logical" name="LSCAAWARE"> F  </i>
   <i type="logical" name="LSCALU"> F  </i>
   <i type="logical" name="LASYNC"> F  </i>
   <i type="logical" name="LORBITALREAL"> F  </i>
  </separator>
  <separator name="miscellaneous" >
   <i type="int" name="IDIOT">     3</i>
   <i type="logical" name="LMUSIC"> F  </i>
   <v name="POMASS">     24.30500000     16.00000000</v>
   <v name="DARWINR">      0.00000000      0.00000000</v>
   <v name="DARWINV">      1.00000000      1.00000000</v>
   <i type="logical" name="LCORR"> T  </i>
  </separator>
  <i type="logical" name="GGA_COMPAT"> T  </i>
  <i type="logical" name="LBERRY"> F  </i>
  <i type="int" name="ICORELEVEL">     0</i>
  <i type="logical" name="LDAU"> F  </i>
  <i type="int" name="I_CONSTRAINED_M">     0</i>
  <separator name="electronic exchange-correlation" >
   <i type="string" name="GGA">--</i>
   <i type="int" name="VOSKOWN">     0</i>
   <i type="logical" name="LHFCALC"> F  </i>
   <i type="string" name="PRECFOCK"></i>
   <i type="logical" name="LHFONE"> F  </i>
   <i type="logical" name="LRHFCALC"> F  </i>
   <i type="logical" name="LTHOMAS"> F  </i>
   <i type="logical" name="LMODELHF"> F  </i>
   <i name="ENCUT4O">     -1.00000000</i>
   <i type="int" name="EXXOEP">     0</i>
   <i type="int" name="FOURORBIT">     0</i>
   <i name="AEXX">      0.00000000</i>
   <i name="HFALPHA">      0.00000000</i>
   <i name="ALDAX">      1.00000000</i>
   <i name="AGGAX">      1.00000000</i>
   <i name="ALDAC">      1.00000000</i>
   <i name="AGGAC">      1.00000000</i>
   <i type="int" name="NKREDX">     1</i>
   <i type="int" name="NKREDY">     1</i>
   <i type="int" name="NKREDZ">     1</i>
   <i type="logical" name="SHIFTRED"> F  </i>
   <i type="logical" name="ODDONLY"> F  </i>
   <i type="logical" name="EVENONLY"> F  </i>
   <i type="int" name="LMAXFOCK">     0</i>
   <i type="int" name="NMAXFOCKAE">     0</i>
   <i type="logical" name="LFOCKAEDFT"> F  </i>
   <i name="HFSCREEN">      0.00000000</i>
   <i name="HFSCREENC">      0.00000000</i>
  </separator>
  <separator name="model GW" >
   <i type="int" name="MODEL_GW">     0</i>
   <i name="MODEL_EPS0">      5.60436421</i>
   <i name="MODEL_ALPHA">      1.00000000</i>
  </separator>
  <separator name="linear response parameters" >
   <i type="logical" name="LEPSILON"> T  </i>
   <i type="logical" name="LRPA"> F  </i>
   <i type="logical" name="LNABLA"> F  </i>
   <i type="logical" name="LVEL"> F  </i>
   <i type="int" name="KINTER">     0</i>
   <i name="CSHIFT">      0.10000000</i>
   <i name="OMEGAMAX">     -1.00000000</i>
  </separator>
  <separator name="orbital magnetization" >
   <i type="logical" name="NUCIND"> F  </i>
   <v name="MAGPOS">      0.00000000      0.00000000      0.00000000</v>
   <i type="logical" name="LNICSALL"> T  </i>
   <i type="logical" name="ORBITALMAG"> F  </i>
   <i type="logical" name="LMAGBLOCH"> F  </i>
   <i type="logical" name="LCHIMAG"> F  </i>
   <i type="logical" name="LGAUGE"> T  </i>
   <i type="int" name="MAGATOM">     0</i>
   <v name="MAGDIPOL">      0.00000000      0.00000000      0.00000000</v>
   <v name="AVECCONST">      0.00000000      0.00000000      0.00000000</v>
  </separator>
  <separator name="response functions" >
   <i type="logical" name="LADDER"> F  </i>
   <i type="logical" name="LHARTREE"> T  </i>
   <i type="int" name="IBSE">     0</i>
   <i type="logical" name="LTCTE"> F  </i>
   <i type="logical" name="LTETE"> F  </i>
   <i type="logical" name="L2ORDER"> F  </i>
   <i type="logical" name="LUSEW"> F  </i>
   <i name="ENCUTGW">     -2.00000000</i>
   <i name="ENCUTGWSOFT">     -2.00000000</i>
   <i name="ENCUTLF">     -1.00000000</i>
   <i type="int" name="LMAXMP2">    -1</i>
   <i name="SCISSOR">      0.00000000</i>
   <i type="int" name="NOMEGA">     0</i>
   <i type="int" name="NOMEGAR">     0</i>
   <i type="int" name="NBANDSGW">    -1</i>
   <i type="int" name="NBANDSO">    -1</i>
   <i type="int" name="NBANDSV">    -1</i>
   <i name="OPTEMAX">      0.00000000</i>
   <i type="int" name="NELM">     1</i>
   <i type="int" name="DIM">     3</i>
   <i type="int" name="ANTIRES">     0</i>
   <i name="OMEGAMAX">    -30.00000000</i>
   <i name="OMEGATL">   -200.00000000</i>
   <i type="int" name="OMEGAGRID">     0</i>
   <i name="CSHIFT">     -0.10000000</i>
   <i type="logical" name="SELFENERGY"> F  </i>
   <i type="logical" name="LSPECTRAL"> F  </i>
   <i type="logical" name="ODDONLYGW"> F  </i>
   <i type="logical" name="EVENONLYGW"> F  </i>
   <i type="int" name="NKREDLFX">     1</i>
   <i type="int" name="NKREDLFY">     1</i>
   <i type="int" name="NKREDLFZ">     1</i>
   <i type="int" name="MAXMEM">  1800</i>
   <i type="int" name="TELESCOPE">     0</i>
  </separator>
 </parameters>
 <atominfo>
  <atoms>       2 </atoms>
  <types>       2 </types>
  <array name="atoms" >
   <dimension dim="1">ion</dimension>
   <field type="string">element</field>
   <field type="int">atomtype</field>
   <set>
    <rc><c>Mg</c><c>   1</c></rc>
    <rc><c>O </c><c>   2</c></rc>
   </set>
  </array>
  <array name="atomtypes" >
   <dimension dim="1">type</dimension>
   <field type="int">atomspertype</field>
   <field type="string">element</field>
   <field>mass</field>
   <field>valence</field>
   <field type="string">pseudopotential</field>
   <set>
    <rc><c>   1</c><c>Mg</c><c>     24.30500000</c><c>      2.00000000</c><c> PAW Mg 02Mar1998                       </c></rc>
    <rc><c>   1</c><c>O </c><c>     16.00000000</c><c>      6.00000000</c><c> PAW O 31May2000                        </c></rc>
   </set>
  </array>
 </atominfo>
 <structure name="initialpos" >
  <crystal>
   <varray name="basis" >
    <v>       0.00000000       2.10600000       2.10600000 </v>
    <v>       2.10600000       0.00000000       2.10600000 </v>
    <v>       2.10600000       2.10600000       0.00000000 </v>
   </varray>
   <i name="volume">     18.68121403 </i>
   <varray name="rec_basis" >
    <v>      -0.23741690       0.23741690       0.23741690 </v>
    <v>       0.23741690      -0.23741690       0.23741690 </v>
    <v>       0.23741690       0.23741690      -0.23741690 </v>
   </varray>
  </crystal>
  <varray name="positions" >
   <v>       0.00000000       0.00000000       0.00000000 </v>
   <v>       0.50000000       0.50000000       0.50000000 </v>
  </varray>
 </structure>
 <calculation>
  <scstep>
   <time name="dav">    0.15    0.31</time>
   <time name="total">    0.17    0.35</time>
   <energy>
    <i name="alphaZ">      4.16166101 </i>
    <i name="ewald">   -358.19654049 </i>
    <i name="hartreedc">   -120.10072346 </i>
    <i name="XCdc">     20.77497527 </i>
    <i name="pawpsdc">    257.02161424 </i>
    <i name="pawaedc">   -248.12242250 </i>
    <i name="eentropy">      0.00000000 </i>
    <i name="bandstr">     -0.59573277 </i>
    <i name="atom">    454.60906019 </i>
    <i name="e_fr_energy">      9.55189147 </i>
    <i name="e_wo_entrp">      9.55189147 </i>
    <i name="e_0_energy">      9.55189147 </i>
   </energy>
  </scstep>
  <scstep>
   <time name="dav">    0.15    0.21</time>
   <time name="total">    0.15    0.21</time>
   <energy>
    <i name="e_fr_energy">    -14.54284328 </i>
    <i name="e_wo_entrp">    -14.54284328 </i>
    <i name="e_0_energy">    -14.54284328 </i>
   </energy>
  </scstep>
  <scstep>
   <time name="dav">    0.15    0.15</time>
   <time name="total">    0.16    0.16</time>
   <energy>
    <i name="e_fr_energy">    -14.85347970 </i>
    <i name="e_wo_entrp">    -14.85347970 </i>
    <i name="e_0_energy">    -14.85347970 </i>
   </energy>
  </scstep>
  <scstep>
   <time name="dav">    0.16    0.16</time>
   <time name="total">    0.16    0.16</time>
   <energy>
    <i name="e_fr_energy">    -14.85421522 </i>
    <i name="e_wo_entrp">    -14.85421522 </i>
    <i name="e_0_energy">    -14.85421522 </i>
   </energy>
  </scstep>
  <scstep>
   <time name="dav">    0.16    0.16</time>
   <time name="total">    0.18    0.20</time>
   <energy>
    <i name="e_fr_energy">    -14.85421720 </i>
    <i name="e_wo_entrp">    -14.85421720 </i>
    <i name="e_0_energy">    -14.85421720 </i>
   </energy>
  </scstep>
  <scstep>
   <time name="dav">    0.12    0.12</time>
   <time name="total">    0.14    0.14</time>
   <energy>
    <i name="e_fr_energy">    -13.35823044 </i>
    <i name="e_wo_entrp">    -13.35823044 </i>
    <i name="e_0_energy">    -13.35823044 </i>
   </energy>
  </scstep>
  <scstep>
   <time name="dav">    0.12    0.12</time>
   <time name="total">    0.14    0.15</time>
   <energy>
    <i name="e_fr_energy">    -13.31735809 </i>
    <i name="e_wo_entrp">    -13.31735809 </i>
    <i name="e_0_energy">    -13.31735809 </i>
   </energy>
  </scstep>
  <scstep>
   <time name="dav">    0.13    0.13</time>
   <time name="total">    0.15    0.15</time>
   <energy>
    <i name="e_fr_energy">    -13.29430102 </i>
    <i name="e_wo_entrp">    -13.29430102 </i>
    <i name="e_0_energy">    -13.29430102 </i>
   </energy>
  </scstep>
  <scstep>
   <time name="dav">    0.17    0.17</time>
   <time name="total">    0.19    0.19</time>
   <energy>
    <i name="e_fr_energy">    -13.29420365 </i>
    <i name="e_wo_entrp">    -13.29420365 </i>
    <i name="e_0_energy">    -13.29420365 </i>
   </energy>
  </scstep>
  <scstep>
   <time name="dav">    0.13    0.13</time>
   <time name="total">    0.15    0.16</time>
   <energy>
    <i name="e_fr_energy">    -13.29417344 </i>
    <i name="e_wo_entrp">    -13.29417344 </i>
    <i name="e_0_energy">    -13.29417344 </i>
   </energy>
  </scstep>
  <scstep>
   <time name="dav">    0.13    0.13</time>
   <time name="total">    0.15    0.19</time>
   <energy>
    <i name="e_fr_energy">    -13.29417227 </i>
    <i name="e_wo_entrp">    -13.29417227 </i>
    <i name="e_0_energy">    -13.29417227 </i>
   </energy>
  </scstep>
  <scstep>
   <time name="dav">    0.09    0.09</time>
   <time name="total">    0.09    0.09</time>
   <energy>
    <i name="alphaZ">      4.16166101 </i>
    <i name="ewald">   -358.19654049 </i>
    <i name="hartreedc">   -139.09161305 </i>
    <i name="XCdc">     22.29951607 </i>
    <i name="pawpsdc">    313.53648870 </i>
    <i name="pawaedc">   -304.94526151 </i>
    <i name="eentropy">      0.00000000 </i>
    <i name="bandstr">     -5.66748313 </i>
    <i name="atom">    454.60906019 </i>
    <i name="e_fr_energy">    -13.29417223 </i>
    <i name="e_wo_entrp">    -13.29417223 </i>
    <i name="e_0_energy">    -13.29417223 </i>
   </energy>
  </scstep>
  <parameters_embedded>
   <separator name="dft+d2" >
    <i type="logical" name="LVDW"> F  </i>
   </separator>
  </parameters_embedded>
  <structure>
   <crystal>
    <varray name="basis" >
     <v>       0.00000000       2.10600000       2.10600000 </v>
     <v>       2.10600000       0.00000000       2.10600000 </v>
     <v>       2.10600000       2.10600000       0.00000000 </v>
    </varray>
    <i name="volume">     18.68121403 </i>
    <varray name="rec_basis" >
     <v>      -0.23741690       0.23741690       0.23741690 </v>
     <v>       0.23741690      -0.23741690       0.23741690 </v>
     <v>       0.23741690       0.23741690      -0.23741690 </v>
    </varray>
   </crystal>
   <varray name="positions" >
    <v>       0.00000000       0.00000000       0.00000000 </v>
    <v>       0.50000000       0.50000000       0.50000000 </v>
   </varray>
  </structure>
  <varray name="forces" >
   <v>       0.00000000       0.00000000       0.00000000 </v>
   <v>       0.00000000       0.00000000       0.00000000 </v>
  </varray>
  <energy>
   <i name="e_fr_energy">    -13.29417223 </i>
   <i name="e_wo_entrp">    -13.29417223 </i>
   <i name="e_0_energy">      0.00000000 </i>
  </energy>
  <scstep>
   <time name="total">    0.18    0.20</time>
   <energy>
    <i name="e_fr_energy">    -32.19559706 </i>
    <i name="e_wo_entrp">    -32.19559706 </i>
    <i name="e_0_energy">    -32.19559706 </i>
   </energy>
  </scstep>
  <scstep>
   <time name="total">    0.17    0.17</time>
   <energy>
    <i name="e_fr_energy">    -30.37292235 </i>
    <i name="e_wo_entrp">    -30.37292235 </i>
    <i name="e_0_energy">    -30.37292235 </i>
   </energy>
  </scstep>
  <scstep>
   <time name="total">    0.19    0.19</time>
   <energy>
    <i name="e_fr_energy">    -30.37538266 </i>
    <i name="e_wo_entrp">    -30.37538266 </i>
    <i name="e_0_energy">    -30.37538266 </i>
   </energy>
  </scstep>
  <scstep>
   <time name="total">    0.16    0.16</time>
   <energy>
    <i name="e_fr_energy">    -30.37542963 </i>
    <i name="e_wo_entrp">    -30.37542963 </i>
    <i name="e_0_energy">    -30.37542963 </i>
   </energy>
  </scstep>
  <scstep>
   <time name="total">    0.16    0.16</time>
   <energy>
    <i name="e_fr_energy">    -30.37543011 </i>
    <i name="e_wo_entrp">    -30.37543011 </i>
    <i name="e_0_energy">    -30.37543011 </i>
   </energy>
  </scstep>
  <scstep>
   <time name="total">    0.17    0.17</time>
   <energy>
    <i name="e_fr_energy">    -30.71816226 </i>
    <i name="e_wo_entrp">    -30.71816226 </i>
    <i name="e_0_energy">    -30.71816226 </i>
   </energy>
  </scstep>
  <scstep>
   <time name="total">    0.17    0.17</time>
   <energy>
    <i name="e_fr_energy">    -30.08859594 </i>
    <i name="e_wo_entrp">    -30.08859594 </i>
    <i name="e_0_energy">    -30.08859594 </i>
   </energy>
  </scstep>
  <scstep>
   <time name="total">    0.18    0.18</time>
   <energy>
    <i name="e_fr_energy">    -30.09214832 </i>
    <i name="e_wo_entrp">    -30.09214832 </i>
    <i name="e_0_energy">    -30.09214832 </i>
   </energy>
  </scstep>
  <scstep>
   <time name="total">    0.16    0.16</time>
   <energy>
    <i name="e_fr_energy">    -30.09221223 </i>
    <i name="e_wo_entrp">    -30.09221223 </i>
    <i name="e_0_energy">    -30.09221223 </i>
   </energy>
  </scstep>
  <scstep>
   <time name="total">    0.17    0.17</time>
   <energy>
    <i name="e_fr_energy">    -30.09221276 </i>
    <i name="e_wo_entrp">    -30.09221276 </i>
    <i name="e_0_energy">    -30.09221276 </i>
   </energy>
  </scstep>
  <scstep>
   <time name="total">    0.19    0.19</time>
   <energy>
    <i name="e_fr_energy">    -27.51264468 </i>
    <i name="e_wo_entrp">    -27.51264468 </i>
    <i name="e_0_energy">    -27.51264468 </i>
   </energy>
  </scstep>
  <scstep>
   <time name="total">    0.15    0.15</time>
   <energy>
    <i name="e_fr_energy">    -25.57584355 </i>
    <i name="e_wo_entrp">    -25.57584355 </i>
    <i name="e_0_energy">    -25.57584355 </i>
   </energy>
  </scstep>
  <scstep>
   <time name="total">    0.16    0.16</time>
   <energy>
    <i name="e_fr_energy">    -25.57773154 </i>
    <i name="e_wo_entrp">    -25.57773154 </i>
    <i name="e_0_energy">    -25.57773154 </i>
   </energy>
  </scstep>
  <scstep>
   <time name="total">    0.14    0.14</time>
   <energy>
    <i name="e_fr_energy">    -25.57777445 </i>
    <i name="e_wo_entrp">    -25.57777445 </i>
    <i name="e_0_energy">    -25.57777445 </i>
   </energy>
  </scstep>
  <scstep>
   <time name="total">    0.15    0.15</time>
   <energy>
    <i name="e_fr_energy">    -25.57777482 </i>
    <i name="e_wo_entrp">    -25.57777482 </i>
    <i name="e_0_energy">    -25.57777482 </i>
   </energy>
  </scstep>
  <scstep>
   <time name="total">    0.21    0.22</time>
   <energy>
    <i name="e_fr_energy">     -0.13140091 </i>
    <i name="e_wo_entrp">     -0.13140091 </i>
    <i name="e_0_energy">     -0.13140091 </i>
   </energy>
  </scstep>
  <scstep>
   <time name="total">    0.20    0.20</time>
   <energy>
    <i name="e_fr_energy">     -0.13368830 </i>
    <i name="e_wo_entrp">     -0.13368830 </i>
    <i name="e_0_energy">     -0.13368830 </i>
   </energy>
  </scstep>
  <scstep>
   <time name="total">    0.20    0.20</time>
   <energy>
    <i name="e_fr_energy">     -0.13369554 </i>
    <i name="e_wo_entrp">     -0.13369554 </i>
    <i name="e_0_energy">     -0.13369554 </i>
   </energy>
  </scstep>
  <scstep>
   <time name="total">    0.20    0.20</time>
   <energy>
    <i name="e_fr_energy">     -0.13369565 </i>
    <i name="e_wo_entrp">     -0.13369565 </i>
    <i name="e_0_energy">     -0.13369565 </i>
   </energy>
  </scstep>
  <scstep>
   <time name="total">    0.22    0.22</time>
   <energy>
    <i name="e_fr_energy">     -0.13198931 </i>
    <i name="e_wo_entrp">     -0.13198931 </i>
    <i name="e_0_energy">     -0.13198931 </i>
   </energy>
  </scstep>
  <scstep>
   <time name="total">    0.18    0.18</time>
   <energy>
    <i name="e_fr_energy">     -0.13455595 </i>
    <i name="e_wo_entrp">     -0.13455595 </i>
    <i name="e_0_energy">     -0.13455595 </i>
   </energy>
  </scstep>
  <scstep>
   <time name="total">    0.19    0.20</time>
   <energy>
    <i name="e_fr_energy">     -0.13456419 </i>
    <i name="e_wo_entrp">     -0.13456419 </i>
    <i name="e_0_energy">     -0.13456419 </i>
   </energy>
  </scstep>
  <scstep>
   <time name="total">    0.20    0.20</time>
   <energy>
    <i name="e_fr_energy">     -0.13456433 </i>
    <i name="e_wo_entrp">     -0.13456433 </i>
    <i name="e_0_energy">     -0.13456433 </i>
   </energy>
  </scstep>
  <scstep>
   <time name="total">    0.22    0.22</time>
   <energy>
    <i name="e_fr_energy">     -0.08098052 </i>
    <i name="e_wo_entrp">     -0.08098052 </i>
    <i name="e_0_energy">     -0.08098052 </i>
   </energy>
  </scstep>
  <scstep>
   <time name="total">    0.16    0.17</time>
   <energy>
    <i name="e_fr_energy">     -0.08238533 </i>
    <i name="e_wo_entrp">     -0.08238533 </i>
    <i name="e_0_energy">     -0.08238533 </i>
   </energy>
  </scstep>
  <scstep>
   <time name="total">    0.17    0.17</time>
   <energy>
    <i name="e_fr_energy">     -0.08238927 </i>
    <i name="e_wo_entrp">     -0.08238927 </i>
    <i name="e_0_energy">     -0.08238927 </i>
   </energy>
  </scstep>
  <scstep>
   <time name="total">    0.18    0.18</time>
   <energy>
    <i name="e_fr_energy">     -0.08238934 </i>
    <i name="e_wo_entrp">     -0.08238934 </i>
    <i name="e_0_energy">     -0.08238934 </i>
   </energy>
  </scstep>
  <varray name="epsilon_rpa" >
   <v>       3.26434494       0.00000000       0.00000000 </v>
   <v>       0.00000000       3.26434494       0.00000000 </v>
   <v>       0.00000000       0.00000000       3.26434494 </v>
  </varray>
  <kpoints>
   <generation param="Gamma">
    <v type="int" name="divisions">       9        9        9 </v>
    <v name="usershift">      0.00000000       0.00000000       0.00000000 </v>
    <v name="genvec1">      0.11111111       0.00000000       0.00000000 </v>
    <v name="genvec2">      0.00000000       0.11111111       0.00000000 </v>
    <v name="genvec3">      0.00000000       0.00000000       0.11111111 </v>
    <v name="shift">      0.00000000       0.00000000       0.00000000 </v>
   </generation>
   <varray name="kpointlist" >
    <v>       0.00000000       0.00000000       0.00000000 </v>
    <v>       0.11111111       0.00000000       0.00000000 </v>
    <v>       0.22222222       0.00000000       0.00000000 </v>
    <v>       0.33333333       0.00000000       0.00000000 </v>
    <v>       0.44444444       0.00000000       0.00000000 </v>
    <v>       0.11111111       0.11111111       0.00000000 </v>
    <v>       0.22222222       0.11111111       0.00000000 </v>
    <v>       0.33333333       0.11111111       0.00000000 </v>
    <v>       0.44444444       0.11111111       0.00000000 </v>
    <v>      -0.44444444       0.11111111       0.00000000 </v>
    <v>      -0.33333333       0.11111111       0.00000000 </v>
    <v>      -0.22222222       0.11111111       0.00000000 </v>
    <v>      -0.11111111       0.11111111       0.00000000 </v>
    <v>       0.22222222       0.22222222       0.00000000 </v>
    <v>       0.33333333       0.22222222       0.00000000 </v>
    <v>       0.44444444       0.22222222       0.00000000 </v>
    <v>      -0.44444444       0.22222222       0.00000000 </v>
    <v>      -0.33333333       0.22222222       0.00000000 </v>
    <v>      -0.22222222       0.22222222       0.00000000 </v>
    <v>       0.33333333       0.33333333       0.00000000 </v>
    <v>       0.44444444       0.33333333       0.00000000 </v>
    <v>      -0.44444444       0.33333333       0.00000000 </v>
    <v>      -0.33333333       0.33333333       0.00000000 </v>
    <v>       0.44444444       0.44444444       0.00000000 </v>
    <v>      -0.44444444       0.44444444       0.00000000 </v>
    <v>       0.00000000       0.11111111       0.11111111 </v>
    <v>       0.22222222       0.11111111       0.11111111 </v>
    <v>       0.33333333       0.11111111       0.11111111 </v>
    <v>       0.44444444       0.11111111       0.11111111 </v>
    <v>      -0.44444444       0.11111111       0.11111111 </v>
    <v>      -0.33333333       0.11111111       0.11111111 </v>
    <v>      -0.22222222       0.11111111       0.11111111 </v>
    <v>      -0.11111111       0.11111111       0.11111111 </v>
    <v>       0.33333333       0.22222222       0.11111111 </v>
    <v>       0.44444444       0.22222222       0.11111111 </v>
    <v>      -0.44444444       0.22222222       0.11111111 </v>
    <v>      -0.33333333       0.22222222       0.11111111 </v>
    <v>      -0.22222222       0.22222222       0.11111111 </v>
    <v>      -0.11111111       0.22222222       0.11111111 </v>
    <v>       0.22222222       0.33333333       0.11111111 </v>
    <v>       0.44444444       0.33333333       0.11111111 </v>
    <v>      -0.44444444       0.33333333       0.11111111 </v>
    <v>      -0.33333333       0.33333333       0.11111111 </v>
    <v>      -0.22222222       0.33333333       0.11111111 </v>
    <v>       0.22222222       0.44444444       0.11111111 </v>
    <v>       0.33333333       0.44444444       0.11111111 </v>
    <v>      -0.44444444       0.44444444       0.11111111 </v>
    <v>      -0.33333333       0.44444444       0.11111111 </v>
    <v>       0.22222222      -0.44444444       0.11111111 </v>
    <v>       0.33333333      -0.44444444       0.11111111 </v>
    <v>       0.44444444      -0.44444444       0.11111111 </v>
    <v>       0.33333333      -0.33333333       0.11111111 </v>
    <v>       0.44444444      -0.33333333       0.11111111 </v>
    <v>       0.33333333      -0.22222222       0.11111111 </v>
    <v>       0.00000000       0.22222222       0.22222222 </v>
    <v>       0.44444444       0.22222222       0.22222222 </v>
    <v>      -0.44444444       0.22222222       0.22222222 </v>
    <v>      -0.33333333       0.22222222       0.22222222 </v>
    <v>      -0.22222222       0.22222222       0.22222222 </v>
    <v>      -0.11111111       0.22222222       0.22222222 </v>
    <v>      -0.44444444       0.33333333       0.22222222 </v>
    <v>      -0.33333333       0.33333333       0.22222222 </v>
    <v>      -0.22222222       0.33333333       0.22222222 </v>
    <v>      -0.11111111       0.33333333       0.22222222 </v>
    <v>      -0.33333333       0.44444444       0.22222222 </v>
    <v>      -0.22222222       0.44444444       0.22222222 </v>
    <v>       0.44444444      -0.33333333       0.22222222 </v>
    <v>       0.00000000       0.33333333       0.33333333 </v>
    <v>      -0.33333333       0.33333333       0.33333333 </v>
    <v>      -0.22222222       0.33333333       0.33333333 </v>
    <v>      -0.11111111       0.33333333       0.33333333 </v>
    <v>      -0.22222222       0.44444444       0.33333333 </v>
    <v>      -0.11111111       0.44444444       0.33333333 </v>
    <v>       0.00000000       0.44444444       0.44444444 </v>
    <v>      -0.11111111       0.44444444       0.44444444 </v>
   </varray>
   <varray name="weights" >
    <v>       0.00137174 </v>
    <v>       0.01097394 </v>
    <v>       0.01097394 </v>
    <v>       0.01097394 </v>
    <v>       0.01097394 </v>
    <v>       0.00548697 </v>
    <v>       0.02194787 </v>
    <v>       0.02194787 </v>
    <v>       0.02194787 </v>
    <v>       0.02194787 </v>
    <v>       0.02194787 </v>
    <v>       0.02194787 </v>
    <v>       0.01097394 </v>
    <v>       0.00548697 </v>
    <v>       0.02194787 </v>
    <v>       0.02194787 </v>
    <v>       0.02194787 </v>
    <v>       0.02194787 </v>
    <v>       0.01097394 </v>
    <v>       0.00548697 </v>
    <v>       0.02194787 </v>
    <v>       0.02194787 </v>
    <v>       0.01097394 </v>
    <v>       0.00548697 </v>
    <v>       0.01097394 </v>
    <v>       0.00274348 </v>
    <v>       0.00548697 </v>
    <v>       0.01097394 </v>
    <v>       0.01097394 </v>
    <v>       0.01097394 </v>
    <v>       0.01097394 </v>
    <v>       0.01097394 </v>
    <v>       0.01097394 </v>
    <v>       0.01097394 </v>
    <v>       0.02194787 </v>
    <v>       0.02194787 </v>
    <v>       0.02194787 </v>
    <v>       0.02194787 </v>
    <v>       0.01097394 </v>
    <v>       0.01097394 </v>
    <v>       0.01097394 </v>
    <v>       0.02194787 </v>
    <v>       0.02194787 </v>
    <v>       0.01097394 </v>
    <v>       0.02194787 </v>
    <v>       0.01097394 </v>
    <v>       0.01097394 </v>
    <v>       0.01097394 </v>
    <v>       0.02194787 </v>
    <v>       0.02194787 </v>
    <v>       0.01097394 </v>
    <v>       0.02194787 </v>
    <v>       0.01097394 </v>
    <v>       0.01097394 </v>
    <v>       0.00274348 </v>
    <v>       0.00548697 </v>
    <v>       0.01097394 </v>
    <v>       0.01097394 </v>
    <v>       0.01097394 </v>
    <v>       0.01097394 </v>
    <v>       0.01097394 </v>
    <v>       0.02194787 </v>
    <v>       0.02194787 </v>
    <v>       0.01097394 </v>
    <v>       0.01097394 </v>
    <v>       0.01097394 </v>
    <v>       0.01097394 </v>
    <v>       0.00274348 </v>
    <v>       0.00548697 </v>
    <v>       0.01097394 </v>
    <v>       0.01097394 </v>
    <v>       0.01097394 </v>
    <v>       0.01097394 </v>
    <v>       0.00274348 </v>
    <v>       0.00548697 </v>
   </varray>
   <varray name="tetrahedronlist"  type="int" >
    <v type="int" >       16        1        2        2        6 </v>
    <v type="int" >        8        1        2        2       26 </v>
    <v type="int" >       16        2        6        7       27 </v>
    <v type="int" >       16        2        3        7       27 </v>
    <v type="int" >        8        2        2        6       27 </v>
    <v type="int" >       16        3        7        8       28 </v>
    <v type="int" >       16        3        4        8       28 </v>
    <v type="int" >       16        3        7       27       28 </v>
    <v type="int" >       16        4        8        9       29 </v>
    <v type="int" >       16        4        5        9       29 </v>
    <v type="int" >       16        4        8       28       29 </v>
    <v type="int" >       16        5        9       10       30 </v>
    <v type="int" >       16        5        5       10       30 </v>
    <v type="int" >       16        5        9       29       30 </v>
    <v type="int" >       16        5       10       11       31 </v>
    <v type="int" >       16        4        5       11       31 </v>
    <v type="int" >       16        5       10       30       31 </v>
    <v type="int" >       16        4       11       12       32 </v>
    <v type="int" >       16        3        4       12       32 </v>
    <v type="int" >       16        4       11       31       32 </v>
    <v type="int" >       16        3       12       13       33 </v>
    <v type="int" >       16        2        3       13       33 </v>
    <v type="int" >       16        3       12       32       33 </v>
    <v type="int" >        8        2        2       13       26 </v>
    <v type="int" >       16        2       13       26       33 </v>
    <v type="int" >       16        2        3        7       13 </v>
    <v type="int" >       16        2        6        7       13 </v>
    <v type="int" >        8        2        2        6       13 </v>
    <v type="int" >       16        6        7        7       14 </v>
    <v type="int" >        8        6        7        7       27 </v>
    <v type="int" >        8        6        7        7       13 </v>
    <v type="int" >       16        7       14       15       34 </v>
    <v type="int" >       16        7        8       15       34 </v>
    <v type="int" >       16        7        8       28       34 </v>
    <v type="int" >        8        7        7       14       34 </v>
    <v type="int" >        8        7        7       27       34 </v>
    <v type="int" >       16        7       27       28       34 </v>
    <v type="int" >       16        8       15       16       35 </v>
    <v type="int" >       16        8        9       16       35 </v>
    <v type="int" >       16        8        9       29       35 </v>
    <v type="int" >       16        8       15       34       35 </v>
    <v type="int" >       16        8       28       34       35 </v>
    <v type="int" >       16        8       28       29       35 </v>
    <v type="int" >       16        9       16       17       36 </v>
    <v type="int" >       16        9       10       17       36 </v>
    <v type="int" >       16        9       10       30       36 </v>
    <v type="int" >       16        9       16       35       36 </v>
    <v type="int" >       16        9       29       35       36 </v>
    <v type="int" >       16        9       29       30       36 </v>
    <v type="int" >       16       10       17       18       37 </v>
    <v type="int" >       16       10       11       18       37 </v>
    <v type="int" >       16       10       11       31       37 </v>
    <v type="int" >       16       10       17       36       37 </v>
    <v type="int" >       16       10       30       36       37 </v>
    <v type="int" >       16       10       30       31       37 </v>
    <v type="int" >       16       11       18       19       38 </v>
    <v type="int" >       16       11       12       19       38 </v>
    <v type="int" >       16       11       12       32       38 </v>
    <v type="int" >       16       11       18       37       38 </v>
    <v type="int" >       16       11       31       37       38 </v>
    <v type="int" >       16       11       31       32       38 </v>
    <v type="int" >        8       12       12       19       39 </v>
    <v type="int" >        8       12       12       13       39 </v>
    <v type="int" >       16       12       13       33       39 </v>
    <v type="int" >       16       12       19       38       39 </v>
    <v type="int" >       16       12       32       38       39 </v>
    <v type="int" >       16       12       32       33       39 </v>
    <v type="int" >        8       13       33       33       39 </v>
    <v type="int" >        8       13       26       33       33 </v>
    <v type="int" >       16        3        4        8       12 </v>
    <v type="int" >       16        3        7        8       12 </v>
    <v type="int" >       16        3        7       12       13 </v>
    <v type="int" >       16        7        8       15       40 </v>
    <v type="int" >       16        7       14       15       40 </v>
    <v type="int" >        8        7        7       14       40 </v>
    <v type="int" >       16        7        8       12       40 </v>
    <v type="int" >       16        7       12       13       40 </v>
    <v type="int" >        8        7        7       13       40 </v>
    <v type="int" >       16       14       15       15       20 </v>
    <v type="int" >        8       14       15       15       34 </v>
    <v type="int" >        8       14       15       15       40 </v>
    <v type="int" >       16       15       20       21       41 </v>
    <v type="int" >       16       15       16       21       41 </v>
    <v type="int" >       16       15       16       35       41 </v>
    <v type="int" >        8       15       15       20       41 </v>
    <v type="int" >        8       15       15       34       41 </v>
    <v type="int" >       16       15       34       35       41 </v>
    <v type="int" >       16       16       21       22       42 </v>
    <v type="int" >       16       16       17       22       42 </v>
    <v type="int" >       16       16       17       36       42 </v>
    <v type="int" >       16       16       21       41       42 </v>
    <v type="int" >       16       16       35       41       42 </v>
    <v type="int" >       16       16       35       36       42 </v>
    <v type="int" >       16       17       22       23       43 </v>
    <v type="int" >       16       17       18       23       43 </v>
    <v type="int" >       16       17       18       37       43 </v>
    <v type="int" >       16       17       22       42       43 </v>
    <v type="int" >       16       17       36       42       43 </v>
    <v type="int" >       16       17       36       37       43 </v>
    <v type="int" >        8       18       18       23       44 </v>
    <v type="int" >        8       18       18       19       44 </v>
    <v type="int" >       16       18       19       38       44 </v>
    <v type="int" >       16       18       23       43       44 </v>
    <v type="int" >       16       18       37       43       44 </v>
    <v type="int" >       16       18       37       38       44 </v>
    <v type="int" >        8       19       38       38       44 </v>
    <v type="int" >        8       19       38       38       39 </v>
    <v type="int" >       16        4        5        9       11 </v>
    <v type="int" >       16        4        8        9       11 </v>
    <v type="int" >       16        4        8       11       12 </v>
    <v type="int" >       16        8        9       16       45 </v>
    <v type="int" >       16        8       15       16       45 </v>
    <v type="int" >       16        8       15       40       45 </v>
    <v type="int" >       16        8        9       11       45 </v>
    <v type="int" >       16        8       11       12       45 </v>
    <v type="int" >       16        8       12       40       45 </v>
    <v type="int" >       16       15       16       21       46 </v>
    <v type="int" >       16       15       20       21       46 </v>
    <v type="int" >        8       15       15       20       46 </v>
    <v type="int" >       16       15       16       45       46 </v>
    <v type="int" >       16       15       40       45       46 </v>
    <v type="int" >        8       15       15       40       46 </v>
    <v type="int" >       16       20       21       21       24 </v>
    <v type="int" >        8       20       21       21       41 </v>
    <v type="int" >        8       20       21       21       46 </v>
    <v type="int" >       16       21       24       25       47 </v>
    <v type="int" >       16       21       22       25       47 </v>
    <v type="int" >       16       21       22       42       47 </v>
    <v type="int" >        8       21       21       24       47 </v>
    <v type="int" >        8       21       21       41       47 </v>
    <v type="int" >       16       21       41       42       47 </v>
    <v type="int" >        8       22       22       25       48 </v>
    <v type="int" >        8       22       22       23       48 </v>
    <v type="int" >       16       22       23       43       48 </v>
    <v type="int" >       16       22       25       47       48 </v>
    <v type="int" >       16       22       42       47       48 </v>
    <v type="int" >       16       22       42       43       48 </v>
    <v type="int" >        8       23       43       43       48 </v>
    <v type="int" >        8       23       43       43       44 </v>
    <v type="int" >        8        5        5       10       10 </v>
    <v type="int" >       16        5        9       10       10 </v>
    <v type="int" >       16        5        9       10       11 </v>
    <v type="int" >       16        9       10       17       49 </v>
    <v type="int" >       16        9       16       17       49 </v>
    <v type="int" >       16        9       16       45       49 </v>
    <v type="int" >       16        9       10       10       49 </v>
    <v type="int" >       16        9       10       11       49 </v>
    <v type="int" >       16        9       11       45       49 </v>
    <v type="int" >       16       16       17       22       50 </v>
    <v type="int" >       16       16       21       22       50 </v>
    <v type="int" >       16       16       21       46       50 </v>
    <v type="int" >       16       16       17       49       50 </v>
    <v type="int" >       16       16       45       49       50 </v>
    <v type="int" >       16       16       45       46       50 </v>
    <v type="int" >       16       21       22       25       51 </v>
    <v type="int" >       16       21       24       25       51 </v>
    <v type="int" >        8       21       21       24       51 </v>
    <v type="int" >       16       21       22       50       51 </v>
    <v type="int" >       16       21       46       50       51 </v>
    <v type="int" >        8       21       21       46       51 </v>
    <v type="int" >        8       24       24       25       25 </v>
    <v type="int" >        8       24       25       25       47 </v>
    <v type="int" >        8       24       25       25       51 </v>
    <v type="int" >        4       25       25       47       47 </v>
    <v type="int" >        8       25       47       47       48 </v>
    <v type="int" >       16       10       11       18       49 </v>
    <v type="int" >       16       10       17       18       49 </v>
    <v type="int" >       16       10       17       49       49 </v>
    <v type="int" >        8       10       10       49       49 </v>
    <v type="int" >       16       17       18       23       52 </v>
    <v type="int" >       16       17       22       23       52 </v>
    <v type="int" >       16       17       22       50       52 </v>
    <v type="int" >       16       17       18       49       52 </v>
    <v type="int" >       16       17       49       49       52 </v>
    <v type="int" >       16       17       49       50       52 </v>
    <v type="int" >        8       22       22       23       53 </v>
    <v type="int" >        8       22       22       25       53 </v>
    <v type="int" >       16       22       25       51       53 </v>
    <v type="int" >       16       22       23       52       53 </v>
    <v type="int" >       16       22       50       52       53 </v>
    <v type="int" >       16       22       50       51       53 </v>
    <v type="int" >        8       25       51       51       53 </v>
    <v type="int" >        4       25       25       51       51 </v>
    <v type="int" >       16       11       12       19       45 </v>
    <v type="int" >       16       11       18       19       45 </v>
    <v type="int" >       16       11       18       45       49 </v>
    <v type="int" >        8       18       18       19       54 </v>
    <v type="int" >        8       18       18       23       54 </v>
    <v type="int" >       16       18       23       52       54 </v>
    <v type="int" >       16       18       19       45       54 </v>
    <v type="int" >       16       18       45       49       54 </v>
    <v type="int" >       16       18       49       52       54 </v>
    <v type="int" >        8       23       52       52       54 </v>
    <v type="int" >        8       23       52       52       53 </v>
    <v type="int" >        8       12       12       13       40 </v>
    <v type="int" >        8       12       12       19       40 </v>
    <v type="int" >       16       12       19       40       45 </v>
    <v type="int" >        8       19       40       45       45 </v>
    <v type="int" >        8       19       45       45       54 </v>
    <v type="int" >        8       26       33       33       55 </v>
    <v type="int" >        8       27       28       28       34 </v>
    <v type="int" >       16       28       34       35       56 </v>
    <v type="int" >       16       28       29       35       56 </v>
    <v type="int" >        8       28       28       34       56 </v>
    <v type="int" >       16       29       35       36       57 </v>
    <v type="int" >       16       29       30       36       57 </v>
    <v type="int" >       16       29       35       56       57 </v>
    <v type="int" >       16       30       36       37       58 </v>
    <v type="int" >       16       30       31       37       58 </v>
    <v type="int" >       16       30       36       57       58 </v>
    <v type="int" >       16       31       37       38       59 </v>
    <v type="int" >       16       31       32       38       59 </v>
    <v type="int" >       16       31       37       58       59 </v>
    <v type="int" >       16       32       38       39       60 </v>
    <v type="int" >       16       32       33       39       60 </v>
    <v type="int" >       16       32       38       59       60 </v>
    <v type="int" >        8       33       33       39       55 </v>
    <v type="int" >       16       33       39       55       60 </v>
    <v type="int" >        8       34       35       35       41 </v>
    <v type="int" >        8       34       35       35       56 </v>
    <v type="int" >       16       35       41       42       61 </v>
    <v type="int" >       16       35       36       42       61 </v>
    <v type="int" >       16       35       36       57       61 </v>
    <v type="int" >        8       35       35       41       61 </v>
    <v type="int" >        8       35       35       56       61 </v>
    <v type="int" >       16       35       56       57       61 </v>
    <v type="int" >       16       36       42       43       62 </v>
    <v type="int" >       16       36       37       43       62 </v>
    <v type="int" >       16       36       37       58       62 </v>
    <v type="int" >       16       36       42       61       62 </v>
    <v type="int" >       16       36       57       61       62 </v>
    <v type="int" >       16       36       57       58       62 </v>
    <v type="int" >       16       37       43       44       63 </v>
    <v type="int" >       16       37       38       44       63 </v>
    <v type="int" >       16       37       38       59       63 </v>
    <v type="int" >       16       37       43       62       63 </v>
    <v type="int" >       16       37       58       62       63 </v>
    <v type="int" >       16       37       58       59       63 </v>
    <v type="int" >        8       38       38       44       64 </v>
    <v type="int" >        8       38       38       39       64 </v>
    <v type="int" >       16       38       39       60       64 </v>
    <v type="int" >       16       38       44       63       64 </v>
    <v type="int" >       16       38       59       63       64 </v>
    <v type="int" >       16       38       59       60       64 </v>
    <v type="int" >        8       39       60       60       64 </v>
    <v type="int" >        8       39       55       60       60 </v>
    <v type="int" >        8       40       45       45       46 </v>
    <v type="int" >        8       41       42       42       47 </v>
    <v type="int" >        8       41       42       42       61 </v>
    <v type="int" >       16       42       47       48       65 </v>
    <v type="int" >       16       42       43       48       65 </v>
    <v type="int" >       16       42       43       62       65 </v>
    <v type="int" >        8       42       42       47       65 </v>
    <v type="int" >        8       42       42       61       65 </v>
    <v type="int" >       16       42       61       62       65 </v>
    <v type="int" >        8       43       43       48       66 </v>
    <v type="int" >        8       43       43       44       66 </v>
    <v type="int" >       16       43       44       63       66 </v>
    <v type="int" >       16       43       48       65       66 </v>
    <v type="int" >       16       43       62       65       66 </v>
    <v type="int" >       16       43       62       63       66 </v>
    <v type="int" >        8       44       63       63       66 </v>
    <v type="int" >        8       44       63       63       64 </v>
    <v type="int" >       16       45       49       50       54 </v>
    <v type="int" >       16       45       46       50       54 </v>
    <v type="int" >        8       45       45       46       54 </v>
    <v type="int" >        8       46       50       50       51 </v>
    <v type="int" >        8       46       50       50       54 </v>
    <v type="int" >        4       47       47       48       48 </v>
    <v type="int" >        8       47       48       48       65 </v>
    <v type="int" >        4       48       48       65       65 </v>
    <v type="int" >        8       48       65       65       66 </v>
    <v type="int" >        8       49       49       52       52 </v>
    <v type="int" >       16       49       50       52       52 </v>
    <v type="int" >       16       49       50       52       54 </v>
    <v type="int" >       16       50       52       53       67 </v>
    <v type="int" >       16       50       51       53       67 </v>
    <v type="int" >        8       50       50       51       67 </v>
    <v type="int" >       16       50       52       52       67 </v>
    <v type="int" >       16       50       52       54       67 </v>
    <v type="int" >        8       50       50       54       67 </v>
    <v type="int" >        4       51       51       53       53 </v>
    <v type="int" >        8       51       53       53       67 </v>
    <v type="int" >        8       52       52       54       67 </v>
    <v type="int" >        8       52       52       53       67 </v>
    <v type="int" >       16       52       53       67       67 </v>
    <v type="int" >        8       52       52       67       67 </v>
    <v type="int" >        8       53       67       67       67 </v>
    <v type="int" >        4       53       53       67       67 </v>
    <v type="int" >        8       55       60       60       68 </v>
    <v type="int" >        8       56       57       57       61 </v>
    <v type="int" >       16       57       61       62       69 </v>
    <v type="int" >       16       57       58       62       69 </v>
    <v type="int" >        8       57       57       61       69 </v>
    <v type="int" >       16       58       62       63       70 </v>
    <v type="int" >       16       58       59       63       70 </v>
    <v type="int" >       16       58       62       69       70 </v>
    <v type="int" >       16       59       63       64       71 </v>
    <v type="int" >       16       59       60       64       71 </v>
    <v type="int" >       16       59       63       70       71 </v>
    <v type="int" >        8       60       60       64       68 </v>
    <v type="int" >       16       60       64       68       71 </v>
    <v type="int" >        8       61       62       62       65 </v>
    <v type="int" >        8       61       62       62       69 </v>
    <v type="int" >       16       62       65       66       72 </v>
    <v type="int" >       16       62       63       66       72 </v>
    <v type="int" >       16       62       63       70       72 </v>
    <v type="int" >        8       62       62       65       72 </v>
    <v type="int" >        8       62       62       69       72 </v>
    <v type="int" >       16       62       69       70       72 </v>
    <v type="int" >        8       63       63       66       73 </v>
    <v type="int" >        8       63       63       64       73 </v>
    <v type="int" >       16       63       64       71       73 </v>
    <v type="int" >       16       63       66       72       73 </v>
    <v type="int" >       16       63       70       72       73 </v>
    <v type="int" >       16       63       70       71       73 </v>
    <v type="int" >        8       64       71       71       73 </v>
    <v type="int" >        8       64       68       71       71 </v>
    <v type="int" >        4       65       65       66       66 </v>
    <v type="int" >        8       65       66       66       72 </v>
    <v type="int" >        4       66       66       72       72 </v>
    <v type="int" >        8       66       72       72       73 </v>
    <v type="int" >        2       67       67       67       67 </v>
    <v type="int" >        8       68       71       71       74 </v>
    <v type="int" >        8       69       70       70       72 </v>
    <v type="int" >       16       70       72       73       75 </v>
    <v type="int" >       16       70       71       73       75 </v>
    <v type="int" >        8       70       70       72       75 </v>
    <v type="int" >        8       71       71       73       74 </v>
    <v type="int" >       16       71       73       74       75 </v>
    <v type="int" >        4       72       72       73       73 </v>
    <v type="int" >        8       72       73       73       75 </v>
    <v type="int" >        4       73       73       75       75 </v>
    <v type="int" >        8       73       74       75       75 </v>
    <v type="int" >        4       74       74       75       75 </v>
   </varray>
   <i name="volumeweight">      0.00022862 </i>
  </kpoints>
  <scstep>
   <time name="total">    0.45    0.45</time>
   <energy>
    <i name="e_fr_energy">     -0.11492738 </i>
    <i name="e_wo_entrp">     -0.11492738 </i>
    <i name="e_0_energy">     -0.11492738 </i>
   </energy>
  </scstep>
  <scstep>
   <time name="total">    0.43    0.43</time>
   <energy>
    <i name="e_fr_energy">     -0.11687640 </i>
    <i name="e_wo_entrp">     -0.11687640 </i>
    <i name="e_0_energy">     -0.11687640 </i>
   </energy>
  </scstep>
  <scstep>
   <time name="total">    0.44    0.44</time>
   <energy>
    <i name="e_fr_energy">     -0.11400041 </i>
    <i name="e_wo_entrp">     -0.11400041 </i>
    <i name="e_0_energy">     -0.11400041 </i>
   </energy>
  </scstep>
  <scstep>
   <time name="total">    0.43    0.43</time>
   <energy>
    <i name="e_fr_energy">     -0.11813187 </i>
    <i name="e_wo_entrp">     -0.11813187 </i>
    <i name="e_0_energy">     -0.11813187 </i>
   </energy>
  </scstep>
  <scstep>
   <time name="total">    0.45    0.45</time>
   <energy>
    <i name="e_fr_energy">     -0.11850215 </i>
    <i name="e_wo_entrp">     -0.11850215 </i>
    <i name="e_0_energy">     -0.11850215 </i>
   </energy>
  </scstep>
  <scstep>
   <time name="total">    0.47    0.47</time>
   <energy>
    <i name="e_fr_energy">     -0.11855750 </i>
    <i name="e_wo_entrp">     -0.11855750 </i>
    <i name="e_0_energy">     -0.11855750 </i>
   </energy>
  </scstep>
  <scstep>
   <time name="total">    0.45    0.45</time>
   <energy>
    <i name="e_fr_energy">     -0.11856574 </i>
    <i name="e_wo_entrp">     -0.11856574 </i>
    <i name="e_0_energy">     -0.11856574 </i>
   </energy>
  </scstep>
  <scstep>
   <time name="total">    0.44    0.44</time>
   <energy>
    <i name="e_fr_energy">     -0.11856766 </i>
    <i name="e_wo_entrp">     -0.11856766 </i>
    <i name="e_0_energy">     -0.11856766 </i>
   </energy>
  </scstep>
  <scstep>
   <time name="total">    0.39    0.39</time>
   <energy>
    <i name="e_fr_energy">     -0.11856810 </i>
    <i name="e_wo_entrp">     -0.11856810 </i>
    <i name="e_0_energy">     -0.11856810 </i>
   </energy>
  </scstep>
  <kpoints>
   <generation param="Gamma">
    <v type="int" name="divisions">       9        9        9 </v>
    <v name="usershift">      0.00000000       0.00000000       0.00000000 </v>
    <v name="genvec1">      0.11111111       0.00000000       0.00000000 </v>
    <v name="genvec2">      0.00000000       0.11111111       0.00000000 </v>
    <v name="genvec3">      0.00000000       0.00000000       0.11111111 </v>
    <v name="shift">      0.00000000       0.00000000       0.00000000 </v>
   </generation>
   <varray name="kpointlist" >
    <v>       0.00000000       0.00000000       0.00000000 </v>
    <v>       0.11111111       0.00000000       0.00000000 </v>
    <v>       0.22222222       0.00000000       0.00000000 </v>
    <v>       0.33333333       0.00000000       0.00000000 </v>
    <v>       0.44444444       0.00000000       0.00000000 </v>
    <v>       0.11111111       0.11111111       0.00000000 </v>
    <v>       0.22222222       0.11111111       0.00000000 </v>
    <v>       0.33333333       0.11111111       0.00000000 </v>
    <v>       0.44444444       0.11111111       0.00000000 </v>
    <v>      -0.44444444       0.11111111       0.00000000 </v>
    <v>      -0.33333333       0.11111111       0.00000000 </v>
    <v>      -0.22222222       0.11111111       0.00000000 </v>
    <v>      -0.11111111       0.11111111       0.00000000 </v>
    <v>       0.22222222       0.22222222       0.00000000 </v>
    <v>       0.33333333       0.22222222       0.00000000 </v>
    <v>       0.44444444       0.22222222       0.00000000 </v>
    <v>      -0.44444444       0.22222222       0.00000000 </v>
    <v>      -0.33333333       0.22222222       0.00000000 </v>
    <v>      -0.22222222       0.22222222       0.00000000 </v>
    <v>       0.33333333       0.33333333       0.00000000 </v>
    <v>       0.44444444       0.33333333       0.00000000 </v>
    <v>      -0.44444444       0.33333333       0.00000000 </v>
    <v>      -0.33333333       0.33333333       0.00000000 </v>
    <v>       0.44444444       0.44444444       0.00000000 </v>
    <v>      -0.44444444       0.44444444       0.00000000 </v>
    <v>       0.11111111       0.00000000       0.11111111 </v>
    <v>       0.22222222       0.00000000       0.11111111 </v>
    <v>       0.33333333       0.00000000       0.11111111 </v>
    <v>       0.44444444       0.00000000       0.11111111 </v>
    <v>      -0.44444444       0.00000000       0.11111111 </v>
    <v>      -0.33333333       0.00000000       0.11111111 </v>
    <v>      -0.22222222       0.00000000       0.11111111 </v>
    <v>      -0.11111111       0.00000000       0.11111111 </v>
    <v>       0.33333333       0.22222222       0.11111111 </v>
    <v>       0.44444444       0.22222222       0.11111111 </v>
    <v>      -0.44444444       0.22222222       0.11111111 </v>
    <v>       0.22222222       0.33333333       0.11111111 </v>
    <v>       0.44444444       0.33333333       0.11111111 </v>
    <v>      -0.44444444       0.33333333       0.11111111 </v>
    <v>      -0.33333333       0.33333333       0.11111111 </v>
    <v>      -0.22222222       0.33333333       0.11111111 </v>
    <v>       0.22222222       0.44444444       0.11111111 </v>
    <v>       0.33333333       0.44444444       0.11111111 </v>
    <v>      -0.44444444       0.44444444       0.11111111 </v>
    <v>      -0.33333333       0.44444444       0.11111111 </v>
    <v>       0.22222222      -0.44444444       0.11111111 </v>
    <v>       0.33333333      -0.44444444       0.11111111 </v>
    <v>       0.44444444      -0.44444444       0.11111111 </v>
    <v>       0.22222222      -0.33333333       0.11111111 </v>
    <v>       0.33333333      -0.33333333       0.11111111 </v>
    <v>       0.44444444      -0.33333333       0.11111111 </v>
    <v>       0.22222222      -0.22222222       0.11111111 </v>
    <v>       0.33333333      -0.22222222       0.11111111 </v>
    <v>       0.22222222      -0.11111111       0.11111111 </v>
    <v>       0.22222222       0.00000000       0.22222222 </v>
    <v>       0.33333333       0.00000000       0.22222222 </v>
    <v>       0.44444444       0.00000000       0.22222222 </v>
    <v>      -0.44444444       0.00000000       0.22222222 </v>
    <v>      -0.33333333       0.00000000       0.22222222 </v>
    <v>      -0.22222222       0.00000000       0.22222222 </v>
    <v>      -0.33333333       0.44444444       0.22222222 </v>
    <v>       0.33333333      -0.44444444       0.22222222 </v>
    <v>       0.33333333      -0.33333333       0.22222222 </v>
    <v>       0.44444444      -0.33333333       0.22222222 </v>
    <v>       0.33333333      -0.22222222       0.22222222 </v>
    <v>       0.44444444      -0.22222222       0.22222222 </v>
    <v>       0.33333333      -0.11111111       0.22222222 </v>
    <v>       0.33333333       0.00000000       0.33333333 </v>
    <v>       0.44444444       0.00000000       0.33333333 </v>
    <v>      -0.44444444       0.00000000       0.33333333 </v>
    <v>      -0.33333333       0.00000000       0.33333333 </v>
    <v>       0.44444444      -0.22222222       0.33333333 </v>
    <v>       0.44444444      -0.11111111       0.33333333 </v>
    <v>       0.44444444       0.00000000       0.44444444 </v>
    <v>      -0.44444444       0.00000000       0.44444444 </v>
   </varray>
   <varray name="weights" >
    <v>       0.00137174 </v>
    <v>       0.01097394 </v>
    <v>       0.01097394 </v>
    <v>       0.01097394 </v>
    <v>       0.01097394 </v>
    <v>       0.00548697 </v>
    <v>       0.02194787 </v>
    <v>       0.02194787 </v>
    <v>       0.02194787 </v>
    <v>       0.02194787 </v>
    <v>       0.02194787 </v>
    <v>       0.02194787 </v>
    <v>       0.01097394 </v>
    <v>       0.00548697 </v>
    <v>       0.02194787 </v>
    <v>       0.02194787 </v>
    <v>       0.02194787 </v>
    <v>       0.02194787 </v>
    <v>       0.01097394 </v>
    <v>       0.00548697 </v>
    <v>       0.02194787 </v>
    <v>       0.02194787 </v>
    <v>       0.01097394 </v>
    <v>       0.00548697 </v>
    <v>       0.01097394 </v>
    <v>       0.00274348 </v>
    <v>       0.01097394 </v>
    <v>       0.01097394 </v>
    <v>       0.01097394 </v>
    <v>       0.01097394 </v>
    <v>       0.01097394 </v>
    <v>       0.01097394 </v>
    <v>       0.00548697 </v>
    <v>       0.01097394 </v>
    <v>       0.02194787 </v>
    <v>       0.02194787 </v>
    <v>       0.01097394 </v>
    <v>       0.01097394 </v>
    <v>       0.02194787 </v>
    <v>       0.02194787 </v>
    <v>       0.01097394 </v>
    <v>       0.02194787 </v>
    <v>       0.01097394 </v>
    <v>       0.01097394 </v>
    <v>       0.01097394 </v>
    <v>       0.02194787 </v>
    <v>       0.02194787 </v>
    <v>       0.01097394 </v>
    <v>       0.02194787 </v>
    <v>       0.02194787 </v>
    <v>       0.01097394 </v>
    <v>       0.02194787 </v>
    <v>       0.01097394 </v>
    <v>       0.01097394 </v>
    <v>       0.00274348 </v>
    <v>       0.01097394 </v>
    <v>       0.01097394 </v>
    <v>       0.01097394 </v>
    <v>       0.01097394 </v>
    <v>       0.00548697 </v>
    <v>       0.01097394 </v>
    <v>       0.01097394 </v>
    <v>       0.02194787 </v>
    <v>       0.01097394 </v>
    <v>       0.02194787 </v>
    <v>       0.01097394 </v>
    <v>       0.01097394 </v>
    <v>       0.00274348 </v>
    <v>       0.01097394 </v>
    <v>       0.01097394 </v>
    <v>       0.00548697 </v>
    <v>       0.01097394 </v>
    <v>       0.01097394 </v>
    <v>       0.00274348 </v>
    <v>       0.00548697 </v>
   </varray>
   <varray name="tetrahedronlist"  type="int" >
    <v type="int" >       16        1        2        2        6 </v>
    <v type="int" >        8        1        2        2       26 </v>
    <v type="int" >       16        2        6        7       13 </v>
    <v type="int" >       16        2        3        7       13 </v>
    <v type="int" >       16        2        3       13       27 </v>
    <v type="int" >        8        2        2        6       13 </v>
    <v type="int" >        8        2        2       13       26 </v>
    <v type="int" >       16        2       13       26       27 </v>
    <v type="int" >       16        3        7        8       12 </v>
    <v type="int" >       16        3        4        8       12 </v>
    <v type="int" >       16        3        4       12       28 </v>
    <v type="int" >       16        3        7       12       13 </v>
    <v type="int" >       16        3       12       13       27 </v>
    <v type="int" >       16        3       12       27       28 </v>
    <v type="int" >       16        4        8        9       11 </v>
    <v type="int" >       16        4        5        9       11 </v>
    <v type="int" >       16        4        5       11       29 </v>
    <v type="int" >       16        4        8       11       12 </v>
    <v type="int" >       16        4       11       12       28 </v>
    <v type="int" >       16        4       11       28       29 </v>
    <v type="int" >       16        5        9       10       10 </v>
    <v type="int" >        8        5        5       10       10 </v>
    <v type="int" >       16        5        5       10       30 </v>
    <v type="int" >       16        5        9       10       11 </v>
    <v type="int" >       16        5       10       11       29 </v>
[...]
       <r>    0.6495    1.0000 </r>
       <r>    3.3901    1.0000 </r>
       <r>    3.3902    1.0000 </r>
       <r>   13.7284    0.0000 </r>
       <r>   14.4123    0.0000 </r>
       <r>   17.6128    0.0000 </r>
       <r>   23.2137    0.0000 </r>
      </set>
      <set comment="kpoint 25">
       <r>  -10.6362    1.0000 </r>
       <r>    0.6968    1.0000 </r>
       <r>    2.9801    1.0000 </r>
       <r>    3.3984    1.0000 </r>
       <r>   13.9487    0.0000 </r>
       <r>   14.8299    0.0000 </r>
       <r>   17.4869    0.0000 </r>
       <r>   23.0118    0.0000 </r>
      </set>
      <set comment="kpoint 26">
       <r>  -11.4973    1.0000 </r>
       <r>    1.9844    1.0000 </r>
       <r>    3.7758    1.0000 </r>
       <r>    4.2199    1.0000 </r>
       <r>   12.5819    0.0000 </r>
       <r>   16.2838    0.0000 </r>
       <r>   20.0007    0.0000 </r>
       <r>   22.0075    0.0000 </r>
      </set>
      <set comment="kpoint 27">
       <r>  -11.1085    1.0000 </r>
       <r>    1.1579    1.0000 </r>
       <r>    3.2669    1.0000 </r>
       <r>    3.9941    1.0000 </r>
       <r>   13.5905    0.0000 </r>
       <r>   16.1336    0.0000 </r>
       <r>   18.9130    0.0000 </r>
       <r>   21.6175    0.0000 </r>
      </set>
      <set comment="kpoint 28">
       <r>  -10.8312    1.0000 </r>
       <r>    0.6071    1.0000 </r>
       <r>    2.9937    1.0000 </r>
       <r>    3.8235    1.0000 </r>
       <r>   13.9066    0.0000 </r>
       <r>   16.6826    0.0000 </r>
       <r>   18.2997    0.0000 </r>
       <r>   21.3029    0.0000 </r>
      </set>
      <set comment="kpoint 29">
       <r>  -10.9982    1.0000 </r>
       <r>    1.1786    1.0000 </r>
       <r>    3.2491    1.0000 </r>
       <r>    3.6602    1.0000 </r>
       <r>   14.2355    0.0000 </r>
       <r>   15.0832    0.0000 </r>
       <r>   18.1502    0.0000 </r>
       <r>   21.9845    0.0000 </r>
      </set>
      <set comment="kpoint 30">
       <r>  -10.7493    1.0000 </r>
       <r>    1.0049    1.0000 </r>
       <r>    2.5959    1.0000 </r>
       <r>    3.4763    1.0000 </r>
       <r>   14.7950    0.0000 </r>
       <r>   15.8464    0.0000 </r>
       <r>   17.3940    0.0000 </r>
       <r>   21.4392    0.0000 </r>
      </set>
      <set comment="kpoint 31">
       <r>  -10.6789    1.0000 </r>
       <r>    1.1263    1.0000 </r>
       <r>    2.0916    1.0000 </r>
       <r>    3.5170    1.0000 </r>
       <r>   15.0348    0.0000 </r>
       <r>   16.5338    0.0000 </r>
       <r>   17.1131    0.0000 </r>
       <r>   21.1095    0.0000 </r>
      </set>
      <set comment="kpoint 32">
       <r>  -10.8269    1.0000 </r>
       <r>    1.1337    1.0000 </r>
       <r>    2.3933    1.0000 </r>
       <r>    3.7389    1.0000 </r>
       <r>   14.8052    0.0000 </r>
       <r>   16.0840    0.0000 </r>
       <r>   17.7038    0.0000 </r>
       <r>   21.4142    0.0000 </r>
      </set>
      <set comment="kpoint 33">
       <r>  -10.6697    1.0000 </r>
       <r>    0.8487    1.0000 </r>
       <r>    2.9389    1.0000 </r>
       <r>    3.2334    1.0000 </r>
       <r>   14.4357    0.0000 </r>
       <r>   15.0849    0.0000 </r>
       <r>   17.3536    0.0000 </r>
       <r>   22.0094    0.0000 </r>
      </set>
      <set comment="kpoint 34">
       <r>  -10.6131    1.0000 </r>
       <r>    1.1644    1.0000 </r>
       <r>    2.1774    1.0000 </r>
       <r>    3.2504    1.0000 </r>
       <r>   14.9559    0.0000 </r>
       <r>   16.0829    0.0000 </r>
       <r>   16.9744    0.0000 </r>
       <r>   21.1146    0.0000 </r>
      </set>
      <set comment="kpoint 35">
       <r>  -10.6204    1.0000 </r>
       <r>    1.3989    1.0000 </r>
       <r>    2.0049    1.0000 </r>
       <r>    3.0799    1.0000 </r>
       <r>   15.8610    0.0000 </r>
       <r>   16.1166    0.0000 </r>
       <r>   16.7360    0.0000 </r>
       <r>   20.3319    0.0000 </r>
      </set>
     </set>
    </set>
   </array>
  </eigenvalues>
  <separator name="orbital magnetization" >
   <v name="MAGDIPOLOUT">      0.00000000      0.00000000      0.00000000</v>
  </separator>
  <dos>
   <i name="efermi">      4.82927587 </i>
   <total>
    <array>
     <dimension dim="1">gridpoints</dimension>
     <dimension dim="2">spin</dimension>
     <field>energy</field>
     <field>total</field>
     <field>integrated</field>
     <set>
      <set comment="spin 1">
       <r>   -14.2719     0.0000     0.0000 </r>
       <r>   -14.1403     0.0000     0.0000 </r>
       <r>   -14.0086     0.0000     0.0000 </r>
       <r>   -13.8770     0.0000     0.0000 </r>
       <r>   -13.7454     0.0000     0.0000 </r>
       <r>   -13.6138     0.0000     0.0000 </r>
       <r>   -13.4822     0.0000     0.0000 </r>
       <r>   -13.3505     0.0000     0.0000 </r>
       <r>   -13.2189     0.0000     0.0000 </r>
       <r>   -13.0873     0.0000     0.0000 </r>
       <r>   -12.9557     0.0000     0.0000 </r>
       <r>   -12.8241     0.0000     0.0000 </r>
       <r>   -12.6925     0.0000     0.0000 </r>
       <r>   -12.5608     0.0000     0.0000 </r>
       <r>   -12.4292     0.0000     0.0000 </r>
       <r>   -12.2976     0.0000     0.0000 </r>
       <r>   -12.1660     0.1158     0.0041 </r>
       <r>   -12.0344     0.2111     0.0271 </r>
       <r>   -11.9027     0.3102     0.0613 </r>
       <r>   -11.7711     0.3943     0.1078 </r>
       <r>   -11.6395     0.4913     0.1660 </r>
       <r>   -11.5079     0.6071     0.2376 </r>
       <r>   -11.3763     0.7725     0.3281 </r>
       <r>   -11.2447     0.9673     0.4423 </r>
       <r>   -11.1130     1.2748     0.5858 </r>
       <r>   -10.9814     1.9989     0.7961 </r>
       <r>   -10.8498     3.0733     1.1333 </r>
       <r>   -10.7182     3.5904     1.5682 </r>
       <r>   -10.5866     0.0000     2.0000 </r>
       <r>   -10.4549     0.0000     2.0000 </r>
       <r>   -10.3233     0.0000     2.0000 </r>
       <r>   -10.1917     0.0000     2.0000 </r>
       <r>   -10.0601     0.0000     2.0000 </r>
       <r>    -9.9285     0.0000     2.0000 </r>
       <r>    -9.7968     0.0000     2.0000 </r>
       <r>    -9.6652     0.0000     2.0000 </r>
       <r>    -9.5336     0.0000     2.0000 </r>
       <r>    -9.4020     0.0000     2.0000 </r>
       <r>    -9.2704     0.0000     2.0000 </r>
       <r>    -9.1388     0.0000     2.0000 </r>
       <r>    -9.0071     0.0000     2.0000 </r>
       <r>    -8.8755     0.0000     2.0000 </r>
       <r>    -8.7439     0.0000     2.0000 </r>
       <r>    -8.6123     0.0000     2.0000 </r>
       <r>    -8.4807     0.0000     2.0000 </r>
       <r>    -8.3490     0.0000     2.0000 </r>
       <r>    -8.2174     0.0000     2.0000 </r>
       <r>    -8.0858     0.0000     2.0000 </r>
       <r>    -7.9542     0.0000     2.0000 </r>
       <r>    -7.8226     0.0000     2.0000 </r>
       <r>    -7.6909     0.0000     2.0000 </r>
       <r>    -7.5593     0.0000     2.0000 </r>
       <r>    -7.4277     0.0000     2.0000 </r>
       <r>    -7.2961     0.0000     2.0000 </r>
       <r>    -7.1645     0.0000     2.0000 </r>
       <r>    -7.0329     0.0000     2.0000 </r>
       <r>    -6.9012     0.0000     2.0000 </r>
       <r>    -6.7696     0.0000     2.0000 </r>
       <r>    -6.6380     0.0000     2.0000 </r>
       <r>    -6.5064     0.0000     2.0000 </r>
       <r>    -6.3748     0.0000     2.0000 </r>
       <r>    -6.2431     0.0000     2.0000 </r>
       <r>    -6.1115     0.0000     2.0000 </r>
       <r>    -5.9799     0.0000     2.0000 </r>
       <r>    -5.8483     0.0000     2.0000 </r>
       <r>    -5.7167     0.0000     2.0000 </r>
       <r>    -5.5850     0.0000     2.0000 </r>
       <r>    -5.4534     0.0000     2.0000 </r>
       <r>    -5.3218     0.0000     2.0000 </r>
       <r>    -5.1902     0.0000     2.0000 </r>
       <r>    -5.0586     0.0000     2.0000 </r>
       <r>    -4.9270     0.0000     2.0000 </r>
       <r>    -4.7953     0.0000     2.0000 </r>
       <r>    -4.6637     0.0000     2.0000 </r>
       <r>    -4.5321     0.0000     2.0000 </r>
       <r>    -4.4005     0.0000     2.0000 </r>
       <r>    -4.2689     0.0000     2.0000 </r>
       <r>    -4.1372     0.0000     2.0000 </r>
       <r>    -4.0056     0.0000     2.0000 </r>
       <r>    -3.8740     0.0000     2.0000 </r>
       <r>    -3.7424     0.0000     2.0000 </r>
       <r>    -3.6108     0.0000     2.0000 </r>
       <r>    -3.4792     0.0000     2.0000 </r>
       <r>    -3.3475     0.0000     2.0000 </r>
       <r>    -3.2159     0.0000     2.0000 </r>
       <r>    -3.0843     0.0000     2.0000 </r>
       <r>    -2.9527     0.0000     2.0000 </r>
       <r>    -2.8211     0.0000     2.0000 </r>
       <r>    -2.6894     0.0000     2.0000 </r>
       <r>    -2.5578     0.0000     2.0000 </r>
       <r>    -2.4262     0.0000     2.0000 </r>
       <r>    -2.2946     0.0000     2.0000 </r>
       <r>    -2.1630     0.0000     2.0000 </r>
       <r>    -2.0313     0.0000     2.0000 </r>
       <r>    -1.8997     0.0000     2.0000 </r>
       <r>    -1.7681     0.0000     2.0000 </r>
       <r>    -1.6365     0.0000     2.0000 </r>
       <r>    -1.5049     0.0000     2.0000 </r>
       <r>    -1.3733     0.0000     2.0000 </r>
       <r>    -1.2416     0.0000     2.0000 </r>
       <r>    -1.1100     0.0000     2.0000 </r>
       <r>    -0.9784     0.0000     2.0000 </r>
       <r>    -0.8468     0.0000     2.0000 </r>
       <r>    -0.7152     0.0000     2.0000 </r>
       <r>    -0.5835     0.0000     2.0000 </r>
       <r>    -0.4519     0.0000     2.0000 </r>
       <r>    -0.3203     0.0000     2.0000 </r>
       <r>    -0.1887     0.0000     2.0000 </r>
       <r>    -0.0571     0.0000     2.0000 </r>
       <r>     0.0746     0.0000     2.0000 </r>
       <r>     0.2062     0.2688     2.0141 </r>
       <r>     0.3378     0.3412     2.0505 </r>
       <r>     0.4694     0.4897     2.1050 </r>
       <r>     0.6010     0.6601     2.1804 </r>
       <r>     0.7326     1.1676     2.2978 </r>
       <r>     0.8643     1.7360     2.4872 </r>
       <r>     0.9959     2.5984     2.8120 </r>
       <r>     1.1275     2.5490     3.1532 </r>
       <r>     1.2591     1.3933     3.4325 </r>
       <r>     1.3907     0.6761     3.5626 </r>
       <r>     1.5224     0.4325     3.6280 </r>
       <r>     1.6540     0.3710     3.6807 </r>
       <r>     1.7856     0.3548     3.7279 </r>
       <r>     1.9172     0.3716     3.7759 </r>
       <r>     2.0488     1.1724     3.8543 </r>
       <r>     2.1805     0.8939     3.9996 </r>
       <r>     2.3121     0.9366     4.1204 </r>
       <r>     2.4437     0.9572     4.2450 </r>
       <r>     2.5753     1.0004     4.3735 </r>
       <r>     2.7069     1.0163     4.5066 </r>
       <r>     2.8385     1.0171     4.6405 </r>
       <r>     2.9702     1.1709     4.7787 </r>
       <r>     3.1018     1.3153     4.9284 </r>
       <r>     3.2334     1.6923     5.1243 </r>
       <r>     3.3650     2.3937     5.3955 </r>
       <r>     3.4966     2.5379     5.7283 </r>
       <r>     3.6283     2.7175     6.0776 </r>
       <r>     3.7599     2.6765     6.4352 </r>
       <r>     3.8915     2.9212     6.8058 </r>
       <r>     4.0231     2.9911     7.1911 </r>
       <r>     4.1547     1.8387     7.5014 </r>
       <r>     4.2863     1.2767     7.7002 </r>
       <r>     4.4180     0.9733     7.8526 </r>
       <r>     4.5496     0.5002     7.9473 </r>
       <r>     4.6812     0.1049     7.9984 </r>
       <r>     4.8128     0.0000     8.0000 </r>
       <r>     4.9444     0.0000     8.0000 </r>
       <r>     5.0761     0.0000     8.0000 </r>
       <r>     5.2077     0.0000     8.0000 </r>
       <r>     5.3393     0.0000     8.0000 </r>
       <r>     5.4709     0.0000     8.0000 </r>
       <r>     5.6025     0.0000     8.0000 </r>
       <r>     5.7342     0.0000     8.0000 </r>
       <r>     5.8658     0.0000     8.0000 </r>
       <r>     5.9974     0.0000     8.0000 </r>
       <r>     6.1290     0.0000     8.0000 </r>
       <r>     6.2606     0.0000     8.0000 </r>
       <r>     6.3922     0.0000     8.0000 </r>
       <r>     6.5239     0.0000     8.0000 </r>
       <r>     6.6555     0.0000     8.0000 </r>
       <r>     6.7871     0.0000     8.0000 </r>
       <r>     6.9187     0.0000     8.0000 </r>
       <r>     7.0503     0.0000     8.0000 </r>
       <r>     7.1820     0.0000     8.0000 </r>
       <r>     7.3136     0.0000     8.0000 </r>
       <r>     7.4452     0.0000     8.0000 </r>
       <r>     7.5768     0.0000     8.0000 </r>
       <r>     7.7084     0.0000     8.0000 </r>
       <r>     7.8401     0.0000     8.0000 </r>
       <r>     7.9717     0.0000     8.0000 </r>
       <r>     8.1033     0.0000     8.0000 </r>
       <r>     8.2349     0.0000     8.0000 </r>
       <r>     8.3665     0.0000     8.0000 </r>
       <r>     8.4981     0.0000     8.0000 </r>
       <r>     8.6298     0.0000     8.0000 </r>
       <r>     8.7614     0.0000     8.0000 </r>
       <r>     8.8930     0.0000     8.0000 </r>
       <r>     9.0246     0.0000     8.0000 </r>
       <r>     9.1562     0.0000     8.0000 </r>
       <r>     9.2879     0.0000     8.0000 </r>
       <r>     9.4195     0.0001     8.0000 </r>
       <r>     9.5511     0.0017     8.0001 </r>
       <r>     9.6827     0.0054     8.0005 </r>
       <r>     9.8143     0.0111     8.0016 </r>
       <r>     9.9460     0.0189     8.0035 </r>
       <r>    10.0776     0.0288     8.0067 </r>
       <r>    10.2092     0.0354     8.0110 </r>
       <r>    10.3408     0.0403     8.0160 </r>
       <r>    10.4724     0.0465     8.0217 </r>
       <r>    10.6040     0.0530     8.0282 </r>
       <r>    10.7357     0.0599     8.0356 </r>
       <r>    10.8673     0.0671     8.0440 </r>
       <r>    10.9989     0.0747     8.0533 </r>
       <r>    11.1305     0.0828     8.0637 </r>
       <r>    11.2621     0.0924     8.0752 </r>
       <r>    11.3938     0.1033     8.0880 </r>
       <r>    11.5254     0.1160     8.1025 </r>
       <r>    11.6570     0.1300     8.1186 </r>
       <r>    11.7886     0.1452     8.1367 </r>
       <r>    11.9202     0.1616     8.1569 </r>
       <r>    12.0518     0.1792     8.1793 </r>
       <r>    12.1835     0.1980     8.2041 </r>
       <r>    12.3151     0.2273     8.2317 </r>
       <r>    12.4467     0.2835     8.2651 </r>
       <r>    12.5783     0.3702     8.3083 </r>
       <r>    12.7099     0.4414     8.3619 </r>
       <r>    12.8416     0.4957     8.4237 </r>
       <r>    12.9732     0.5110     8.4912 </r>
       <r>    13.1048     0.4659     8.5533 </r>
       <r>    13.2364     0.4814     8.6156 </r>
       <r>    13.3680     0.4969     8.6800 </r>
       <r>    13.4997     0.5135     8.7465 </r>
       <r>    13.6313     0.5257     8.8149 </r>
       <r>    13.7629     0.5693     8.8857 </r>
       <r>    13.8945     0.6818     8.9682 </r>
       <r>    14.0261     0.7757     9.0639 </r>
       <r>    14.1577     0.8705     9.1723 </r>
       <r>    14.2894     0.9577     9.2949 </r>
       <r>    14.4210     0.9243     9.4187 </r>
       <r>    14.5526     0.9614     9.5417 </r>
       <r>    14.6842     0.9996     9.6716 </r>
       <r>    14.8158     0.9361     9.8013 </r>
       <r>    14.9475     0.8507     9.9200 </r>
       <r>    15.0791     0.5813    10.0126 </r>
       <r>    15.2107     0.5570    10.0872 </r>
       <r>    15.3423     0.5501    10.1599 </r>
       <r>    15.4739     0.5582    10.2326 </r>
       <r>    15.6056     0.5781    10.3073 </r>
       <r>    15.7372     0.6091    10.3853 </r>
       <r>    15.8688     0.6345    10.4708 </r>
       <r>    16.0004     0.8442    10.5692 </r>
       <r>    16.1320     1.2181    10.7140 </r>
       <r>    16.2636     1.4091    10.8895 </r>
       <r>    16.3953     1.4941    11.0806 </r>
       <r>    16.5269     1.4511    11.2762 </r>
       <r>    16.6585     1.7451    11.4996 </r>
       <r>    16.7901     1.3629    11.6886 </r>
       <r>    16.9217     1.0608    11.8472 </r>
       <r>    17.0534     1.2894    11.9981 </r>
       <r>    17.1850     1.0014    12.1342 </r>
       <r>    17.3166     0.9699    12.2645 </r>
       <r>    17.4482     0.9878    12.3913 </r>
       <r>    17.5798     0.9239    12.5228 </r>
       <r>    17.7115     0.6819    12.6230 </r>
       <r>    17.8431     0.6406    12.7100 </r>
       <r>    17.9747     0.6003    12.7917 </r>
       <r>    18.1063     0.5569    12.8679 </r>
       <r>    18.2379     0.5122    12.9382 </r>
       <r>    18.3695     0.4807    13.0032 </r>
       <r>    18.5012     0.4584    13.0650 </r>
       <r>    18.6328     0.4377    13.1240 </r>
       <r>    18.7644     0.4187    13.1803 </r>
       <r>    18.8960     0.4028    13.2343 </r>
       <r>    19.0276     0.3956    13.2868 </r>
       <r>    19.1593     0.3895    13.3385 </r>
       <r>    19.2909     0.3827    13.3893 </r>
       <r>    19.4225     0.3755    13.4392 </r>
       <r>    19.5541     0.3703    13.4883 </r>
       <r>    19.6857     0.3605    13.5364 </r>
       <r>    19.8173     0.3469    13.5830 </r>
       <r>    19.9490     0.3319    13.6277 </r>
       <r>    20.0806     0.3206    13.6705 </r>
       <r>    20.2122     0.3318    13.7131 </r>
       <r>    20.3438     0.4069    13.7621 </r>
       <r>    20.4754     0.4898    13.8203 </r>
       <r>    20.6071     0.7219    13.8964 </r>
       <r>    20.7387     0.8104    13.9969 </r>
       <r>    20.8703     0.8433    14.1080 </r>
       <r>    21.0019     0.9335    14.2184 </r>
       <r>    21.1335     1.3417    14.3676 </r>
       <r>    21.2652     1.7508    14.5760 </r>
       <r>    21.3968     1.8669    14.8162 </r>
       <r>    21.5284     1.8495    15.0631 </r>
       <r>    21.6600     1.6968    15.2987 </r>
       <r>    21.7916     1.3222    15.4976 </r>
       <r>    21.9232     0.9746    15.6493 </r>
       <r>    22.0549     0.4667    15.7475 </r>
       <r>    22.1865     0.3953    15.8041 </r>
       <r>    22.3181     0.3317    15.8519 </r>
       <r>    22.4497     0.2748    15.8917 </r>
       <r>    22.5813     0.2257    15.9246 </r>
       <r>    22.7130     0.1898    15.9516 </r>
       <r>    22.8446     0.1353    15.9735 </r>
       <r>    22.9762     0.0791    15.9875 </r>
       <r>    23.1078     0.0588    15.9964 </r>
       <r>    23.2394     0.0000    16.0000 </r>
       <r>    23.3711     0.0000    16.0000 </r>
       <r>    23.5027     0.0000    16.0000 </r>
       <r>    23.6343     0.0000    16.0000 </r>
       <r>    23.7659     0.0000    16.0000 </r>
       <r>    23.8975     0.0000    16.0000 </r>
       <r>    24.0291     0.0000    16.0000 </r>
       <r>    24.1608     0.0000    16.0000 </r>
       <r>    24.2924     0.0000    16.0000 </r>
       <r>    24.4240     0.0000    16.0000 </r>
       <r>    24.5556     0.0000    16.0000 </r>
       <r>    24.6872     0.0000    16.0000 </r>
       <r>    24.8189     0.0000    16.0000 </r>
       <r>    24.9505     0.0000    16.0000 </r>
       <r>    25.0821     0.0000    16.0000 </r>
       <r>    25.2137     0.0000    16.0000 </r>
      </set>
     </set>
    </array>
   </total>
  </dos>
 </calculation>
 <structure name="finalpos" >
  <crystal>
   <varray name="basis" >
    <v>       0.00000000       2.10600000       2.10600000 </v>
    <v>       2.10600000       0.00000000       2.10600000 </v>
    <v>       2.10600000       2.10600000       0.00000000 </v>
   </varray>
   <i name="volume">     18.68121403 </i>
   <varray name="rec_basis" >
    <v>      -0.23741690       0.23741690       0.23741690 </v>
    <v>       0.23741690      -0.23741690       0.23741690 </v>
    <v>       0.23741690       0.23741690      -0.23741690 </v>
   </varray>
  </crystal>
  <varray name="positions" >
   <v>       0.00000000       0.00000000       0.00000000 </v>
   <v>       0.50000000       0.50000000       0.50000000 </v>
  </varray>
 </structure>
</modeling>
