       N       E                     dE             d eps       ncg     rms          rms(c)
DAV:   1     0.758145230143E+01    0.75815E+01   -0.49521E+03   384   0.335E+02

DAV:   2    -0.230504159122E+02   -0.30632E+02   -0.28046E+02   480   0.584E+01

DAV:   3    -0.242394568594E+02   -0.11890E+01   -0.11625E+01   480   0.959E+00

DAV:   4    -0.242508681275E+02   -0.11411E-01   -0.11407E-01   440   0.125E+00

DAV:   5    -0.242510623282E+02   -0.19420E-03   -0.19420E-03   456   0.163E-01    0.283E+00
DAV:   6    -0.242453724950E+02    0.56898E-02   -0.29719E-03   448   0.276E-01    0.181E+00
DAV:   7    -0.242194292272E+02    0.25943E-01   -0.88763E-03   432   0.459E-01    0.115E-01
DAV:   8    -0.242192168320E+02    0.21240E-03   -0.10566E-04   488   0.381E-02    0.199E-02
DAV:   9    -0.242191936585E+02    0.23174E-04   -0.52604E-06   440   0.914E-03    0.224E-03
DAV:  10    -0.242191935738E+02    0.84706E-07   -0.12884E-07   280   0.174E-03

   1 F= -.24219194E+02 E0= -.24202581E+02  d E =-.498380E-01
 Found     2 degrees of freedom:
       N       E                     dE             d eps       ncg     rms          rms(c)
DAV:   1    -0.242188803608E+02    0.31330E-03   -0.83761E-03   688   0.341E-01    0.165E-02
DAV:   2    -0.242188876380E+02   -0.72772E-05   -0.21306E-04   800   0.518E-02    0.885E-03
DAV:   3    -0.242188872606E+02    0.37739E-06   -0.10163E-05   768   0.110E-02    0.302E-03
DAV:   4    -0.242188877482E+02   -0.48759E-06   -0.13752E-06   568   0.450E-03

   2 F= -.24218888E+02 E0= -.24202275E+02  d E =-.498368E-01
       N       E                     dE             d eps       ncg     rms          rms(c)
DAV:   1    -0.242188834561E+02    0.38045E-05   -0.24982E-02   664   0.560E-01    0.328E-02
DAV:   2    -0.242188876167E+02   -0.41606E-05   -0.61241E-04   808   0.871E-02    0.177E-02
DAV:   3    -0.242188858466E+02    0.17701E-05   -0.41405E-05   776   0.216E-02    0.599E-03
DAV:   4    -0.242188877765E+02   -0.19299E-05   -0.63005E-06   800   0.928E-03    0.167E-03
DAV:   5    -0.242188878882E+02   -0.11168E-06   -0.11238E-07   536   0.137E-03

   3 F= -.24218888E+02 E0= -.24202276E+02  d E =-.498368E-01
       N       E                     dE             d eps       ncg     rms          rms(c)
DAV:   1    -0.242188903081E+02   -0.25316E-05   -0.16730E-02   464   0.481E-01    0.237E-02
DAV:   2    -0.242188969118E+02   -0.66037E-05   -0.45027E-04   584   0.785E-02    0.132E-02
DAV:   3    -0.242188932653E+02    0.36465E-05   -0.25820E-05   536   0.191E-02    0.871E-03
DAV:   4    -0.242188900093E+02    0.32560E-05   -0.11377E-05   544   0.106E-02    0.206E-03
DAV:   5    -0.242188889702E+02    0.10392E-05   -0.24874E-06   496   0.545E-03    0.525E-04
DAV:   6    -0.242188888235E+02    0.14661E-06   -0.34690E-07   344   0.220E-03

   4 F= -.24218889E+02 E0= -.24202275E+02  d E =-.498404E-01
       N       E                     dE             d eps       ncg     rms          rms(c)
DAV:   1    -0.242189387193E+02   -0.49749E-04   -0.29814E-02   448   0.626E-01    0.390E-02
DAV:   2    -0.242188926365E+02    0.46083E-04   -0.91915E-04   544   0.112E-01    0.199E-02
DAV:   3    -0.242188852685E+02    0.73680E-05   -0.67117E-05   560   0.310E-02    0.126E-02
DAV:   4    -0.242188883052E+02   -0.30367E-05   -0.19954E-05   528   0.137E-02    0.357E-03
DAV:   5    -0.242188887338E+02   -0.42861E-06   -0.20871E-06   416   0.537E-03

   5 F= -.24218889E+02 E0= -.24202275E+02  d E =-.498405E-01

