 vasp.5.2.12 26May11 complex 
 executed on              unknown date 2013.05.10  10:44:55
 running on    8 nodes
 distr:  one band on    1 nodes,    8 groups


--------------------------------------------------------------------------------------------------------


 INCAR:
 POTCAR:   PAW_PBE Mg 05Jan2001                   
 POTCAR:   PAW_PBE Mg 05Jan2001                   
   VRHFIN =Mg: s2p0                                                             
   LEXCH  = PE                                                                  
   EATOM  =    23.0029 eV,    1.6907 Ry                                         
                                                                                
   TITEL  = PAW_PBE Mg 05Jan2001                                                
   LULTRA =        F    use ultrasoft PP ?                                      
   IUNSCR =        1    unscreen: 0-lin 1-nonlin 2-no                           
   RPACOR =    2.000    partial core radius                                     
   POMASS =   24.305; ZVAL   =    2.000    mass and valenz                      
   RCORE  =    2.000    outmost cutoff radius                                   
   RWIGS  =    2.880; RWIGS  =    1.524    wigner-seitz radius (au A)           
   ENMAX  =  210.012; ENMIN  =  157.509 eV                                      
   ICORE  =        2    local potential                                         
   LCOR   =        T    correct aug charges                                     
   LPAW   =        T    paw PP                                                  
   EAUG   =  274.554                                                            
   DEXC   =    -.136                                                            
   RMAX   =    3.182    core radius for proj-oper                               
   RAUG   =    1.300    factor for augmentation sphere                          
   RDEP   =    2.025    radius for radial grids                                 
   QCUT   =   -3.929; QGAM   =    7.858    optimization parameters              
                                                                                
   Description                                                                  
     l     E      TYP  RCUT    TYP  RCUT                                        
     0   .000     23  2.000                                                     
     0  2.000     23  2.000                                                     
     1   .000     23  2.000                                                     
     1  2.000     23  2.000                                                     
     2   .000     23  2.000                                                     
  local pseudopotential read in
  partial core-charges read in
  atomic valenz-charges read in
  non local Contribution for L=            0  read in
    real space projection operators read in
  non local Contribution for L=            0  read in
    real space projection operators read in
  non local Contribution for L=            1  read in
    real space projection operators read in
  non local Contribution for L=            1  read in
    real space projection operators read in
    PAW grid and wavefunctions read in

   number of l-projection  operators is LMAX  =            4
   number of lm-projection operators is LMMAX =            8

 PAW_PBE Mg 05Jan2001                   :
 energy of atom  1       EATOM=  -23.0029
 kinetic energy error for atom=    0.0011 (will be added to EATOM!!)


 POSCAR: Supercell by Yi Wang                    
  positions in direct lattice
  No initial velocities read in
 exchange correlation table for  LEXCH =        8
   RHO(1)=    0.500       N(1)  =     2000
   RHO(2)=  100.500       N(2)  =     4000



--------------------------------------------------------------------------------------------------------


 ion  position               nearest neighbor table
   1  0.000  0.000  0.000-  15 3.18  16 3.18  13 3.18  14 3.18   9 3.18  10 3.18   3 3.19   3 3.19
                             7 3.19   7 3.19   5 3.19   5 3.19
   2  0.000  0.000  0.500-  15 3.18  16 3.18  13 3.18  14 3.18   9 3.18  10 3.18   4 3.19   4 3.19
                             8 3.19   8 3.19   6 3.19   6 3.19
   3  0.000  0.500  0.000-  13 3.18  14 3.18  15 3.18  16 3.18  11 3.18  12 3.18   1 3.19   1 3.19
                             5 3.19   5 3.19   7 3.19   7 3.19
   4  0.000  0.500  0.500-  13 3.18  14 3.18  15 3.18  16 3.18  11 3.18  12 3.18   2 3.19   2 3.19
                             6 3.19   6 3.19   8 3.19   8 3.19
   5  0.500  0.000  0.000-  11 3.18  12 3.18   9 3.18  10 3.18  13 3.18  14 3.18   7 3.19   7 3.19
                             3 3.19   3 3.19   1 3.19   1 3.19
   6  0.500  0.000  0.500-  11 3.18  12 3.18   9 3.18  10 3.18  13 3.18  14 3.18   8 3.19   8 3.19
                             4 3.19   4 3.19   2 3.19   2 3.19
   7  0.500  0.500  0.000-   9 3.18  10 3.18  11 3.18  12 3.18  15 3.18  16 3.18   5 3.19   5 3.19
                             1 3.19   1 3.19   3 3.19   3 3.19
   8  0.500  0.500  0.500-   9 3.18  10 3.18  11 3.18  12 3.18  15 3.18  16 3.18   6 3.19   6 3.19
                             2 3.19   2 3.19   4 3.19   4 3.19
   9  0.333  0.167  0.250-   7 3.18   8 3.18   5 3.18   6 3.18   1 3.18   2 3.18  11 3.19  11 3.19
                            15 3.19  15 3.19  13 3.19  13 3.19
  10  0.333  0.167  0.750-   7 3.18   8 3.18   5 3.18   6 3.18   1 3.18   2 3.18  12 3.19  12 3.19
                            16 3.19  16 3.19  14 3.19  14 3.19
  11  0.333  0.667  0.250-   5 3.18   6 3.18   7 3.18   8 3.18   3 3.18   4 3.18   9 3.19   9 3.19
                            13 3.19  13 3.19  15 3.19  15 3.19
  12  0.333  0.667  0.750-   5 3.18   6 3.18   7 3.18   8 3.18   3 3.18   4 3.18  10 3.19  10 3.19
                            14 3.19  14 3.19  16 3.19  16 3.19
  13  0.833  0.167  0.250-   3 3.18   4 3.18   1 3.18   2 3.18   5 3.18   6 3.18  15 3.19  15 3.19
                            11 3.19  11 3.19   9 3.19   9 3.19
  14  0.833  0.167  0.750-   3 3.18   4 3.18   1 3.18   2 3.18   5 3.18   6 3.18  16 3.19  16 3.19
                            12 3.19  12 3.19  10 3.19  10 3.19
  15  0.833  0.667  0.250-   1 3.18   2 3.18   3 3.18   4 3.18   7 3.18   8 3.18  13 3.19  13 3.19
                             9 3.19   9 3.19  11 3.19  11 3.19
  16  0.833  0.667  0.750-   1 3.18   2 3.18   3 3.18   4 3.18   7 3.18   8 3.18  14 3.19  14 3.19
                            10 3.19  10 3.19  12 3.19  12 3.19

  Warning from LATTYP: Monoclinic adjustement (A1->A3, A2->A1, A3->A2)!
  LATTYP: Found a hexagonal cell.
 ALAT       =     6.3763415617
 C/A-ratio  =     1.6267666811
  
  Lattice vectors:
  
 A1 = (  -3.1881600000,  -5.5220800000,   0.0000000000)
 A2 = (   6.3763400000,   0.0000000000,   0.0000000000)
 A3 = (   0.0000000000,   0.0000000000,  10.3728200000)
 Subroutine PRICEL returns following result:
 
  LATTYP: Found a hexagonal cell.
 ALAT       =     3.1881707809
 C/A-ratio  =     1.6267666811
  
  Lattice vectors:
  
 A1 = (   1.5940900000,  -2.7610400000,   0.0000000000)
 A2 = (  -3.1881700000,   0.0000000000,   0.0000000000)
 A3 = (   0.0000000000,   0.0000000000,  -5.1864100000)
 
   8 primitive cells build up your supercell.
 

Analysis of symmetry for initial positions (statically):

 Routine SETGRP: Setting up the symmetry group for a 
 hexagonal supercell.


 Subroutine GETGRP returns: Found 24 space group operations
 (whereof 12 operations were pure point group operations)
 out of a pool of 24 trial point group operations.


The static configuration has the point symmetry D_3h.
 The point group associated with its full space group is D_6h.

Analysis of symmetry for dynamics (positions and initial velocities):

 Subroutine DYNSYM returns: Found 24 space group operations
 (whereof 12 operations were pure point group operations)
 out of a pool of 24 trial space group operations
 (whereof 12 operations were pure point group operations)
 and found also     8 'primitive' translations


The dynamic configuration has the point symmetry D_3h.
 The point group associated with its full space group is D_6h.


 KPOINTS: Magnesium                               

Automatic generation of k-mesh.
 
 Subroutine IBZKPT returns following result:
 ===========================================
 
 Found      6 irreducible k-points:
 
 Following reciprocal coordinates:
            Coordinates               Weight
  0.000000  0.000000  0.000000      1.000000
  0.333333  0.000000  0.000000      6.000000
  0.333333  0.333333  0.000000      2.000000
  0.000000  0.000000  0.333333      2.000000
  0.333333  0.000000  0.333333     12.000000
  0.333333  0.333333  0.333333      4.000000
 
 Following cartesian coordinates:
            Coordinates               Weight
  0.000000  0.000000  0.000000      1.000000
  0.000000 -0.060364  0.000000      6.000000
 -0.052277 -0.090546  0.000000      2.000000
  0.000000  0.000000 -0.032135      2.000000
  0.000000 -0.060364 -0.032135     12.000000
 -0.052277 -0.090546 -0.032135      4.000000
 
 
 Subroutine IBZKPT_HF returns following result:
 ==============================================
 
 Found     27 k-points in 1st BZ
 the following     27 k-points will be used (e.g. in the exchange kernel)
 Following reciprocal coordinates:   # in IRBZ
  0.000000  0.000000  0.000000       1 t-inv F
  0.333333  0.000000  0.000000       2 t-inv F
  0.333333  0.333333  0.000000       3 t-inv F
  0.000000  0.000000  0.333333       4 t-inv F
  0.333333  0.000000  0.333333       5 t-inv F
  0.333333  0.333333  0.333333       6 t-inv F
 -0.333333  0.333333  0.000000       2 t-inv F
  0.000000 -0.333333  0.000000       2 t-inv F
 -0.333333  0.000000  0.000000       2 t-inv F
  0.333333 -0.333333  0.000000       2 t-inv F
  0.000000  0.333333  0.000000       2 t-inv F
 -0.333333 -0.333333  0.000000       3 t-inv F
  0.000000  0.000000 -0.333333       4 t-inv F
 -0.333333  0.333333 -0.333333       5 t-inv F
  0.000000 -0.333333  0.333333       5 t-inv F
  0.333333  0.000000 -0.333333       5 t-inv F
 -0.333333  0.333333  0.333333       5 t-inv F
  0.000000 -0.333333 -0.333333       5 t-inv F
 -0.333333  0.000000 -0.333333       5 t-inv F
  0.333333 -0.333333  0.333333       5 t-inv F
  0.000000  0.333333 -0.333333       5 t-inv F
 -0.333333  0.000000  0.333333       5 t-inv F
  0.333333 -0.333333 -0.333333       5 t-inv F
  0.000000  0.333333  0.333333       5 t-inv F
 -0.666667  0.333333 -0.333333       6 t-inv F
 -0.333333 -0.333333  0.333333       6 t-inv F
 -0.333333  0.666667 -0.333333       6 t-inv F


--------------------------------------------------------------------------------------------------------




 Dimension of arrays:
   k-points           NKPTS =      6   k-points in BZ     NKDIM =      6   number of bands    NBANDS=     32
   number of dos      NEDOS =    301   number of ions     NIONS =     16
   non local maximal  LDIM  =      4   non local SUM 2l+1 LMDIM =      8
   total plane-waves  NPLWV =  45000
   max r-space proj   IRMAX =      1   max aug-charges    IRDMAX=   5433
   dimension x,y,z NGX =    30 NGY =   30 NGZ =   50
   dimension x,y,z NGXF=    60 NGYF=   60 NGZF=  100
   support grid    NGXF=    60 NGYF=   60 NGZF=  100
   ions per type =              16
 NGX,Y,Z   is equivalent  to a cutoff of   7.82,  7.82,  8.01 a.u.
 NGXF,Y,Z  is equivalent  to a cutoff of  15.64, 15.64, 16.03 a.u.


 I would recommend the setting:
   dimension x,y,z NGX =    30 NGY =   30 NGZ =   49
 SYSTEM =  unknown system                          
 POSCAR =  Supercell by Yi Wang                    

 Startparameter for this run:
   NWRITE =      2    write-flag & timer
   PREC   = a         normal or accurate (medium, high low for compatibility)
   ISTART =      0    job   : 0-new  1-cont  2-samecut
   ICHARG =      2    charge: 1-file 2-atom 10-const
   ISPIN  =      1    spin polarized calculation?
   LNONCOLLINEAR =      F non collinear calculations
   LSORBIT =      F    spin-orbit coupling
   INIWAV =      1    electr: 0-lowe 1-rand  2-diag
   LASPH  =      F    aspherical Exc in radial PAW
   METAGGA=      F    non-selfconsistent MetaGGA calc.

 Electronic Relaxation 1
   ENCUT  =  210.0 eV  15.44 Ry    3.93 a.u.   7.53  7.53 12.26*2*pi/ulx,y,z
   ENINI  =  210.0     initial cutoff
   ENAUG  =  274.6 eV  augmentation charge cutoff
   NELM   =     60;   NELMIN=  2; NELMDL= -5     # of ELM steps 
   EDIFF  = 0.1E-05   stopping-criterion for ELM
   LREAL  =      F    real-space projection
   LCOMPAT=      F    compatible to vasp.4.4
   GGA_COMPAT  = T    GGA compatible to vasp.4.4-vasp.4.6
   LMAXPAW     = -100 max onsite density
   LMAXMIX     =    2 max onsite mixed and CHGCAR
   VOSKOWN=      0    Vosko Wilk Nusair interpolation
   ROPT   =    0.00000
 Ionic relaxation
   EDIFFG = 0.1E-04   stopping-criterion for IOM
   NSW    =    229    number of steps for IOM
   NBLOCK =      1;   KBLOCK =      1    inner block; outer block 
   IBRION =      6    ionic relax: 0-MD 1-quasi-New 2-CG
   NFREE  =      2    steps in history (QN), initial steepest desc. (CG)
   ISIF   =     -1    stress and relaxation
   IWAVPR =     11    prediction:  0-non 1-charg 2-wave 3-comb
   ISYM   =      2    0-nonsym 1-usesym 2-fastsym
   LCORR  =      T    Harris-Foulkes like correction to forces

   POTIM  = 0.5000    time-step for ionic-motion
   TEIN   =    0.0    initial temperature
   TEBEG  =    0.0;   TEEND  =   0.0 temperature during run
   SMASS  =  -3.00    Nose mass-parameter (am)
   estimated Nose-frequenzy (Omega)   =  0.10E-29 period in steps =****** mass=  -0.929E-27a.u.
   SCALEE = 1.0000    scale energy and forces
   NPACO  =    256;   APACO  = 16.0  distance and # of slots for P.C.
   PSTRESS=    0.0 pullay stress

  Mass of Ions in am
   POMASS =  24.31
  Ionic Valenz
   ZVAL   =   2.00
  Atomic Wigner-Seitz radii
   RWIGS  =  -1.00
  virtual crystal weights 
   VCA    =   1.00
   NELECT =      32.0000    total number of electrons
   NUPDOWN=      -1.0000    fix difference up-down

 DOS related values:
   EMIN   =  10.00;   EMAX   =-10.00  energy-range for DOS
   EFERMI =   0.00
   ISMEAR =     1;   SIGMA  =   0.20  broadening in eV -4-tet -1-fermi 0-gaus

 Electronic relaxation 2 (details)
   IALGO  =     38    algorithm
   LDIAG  =      T    sub-space diagonalisation (order eigenvalues)
   LSUBROT=      T    optimize rotation matrix (better conditioning)
   TURBO    =      0    0=normal 1=particle mesh
   IRESTART =      0    0=no restart 2=restart with 2 vectors
   NREBOOT  =      0    no. of reboots
   NMIN     =      0    reboot dimension
   EREF     =   0.00    reference energy to select bands
   IMIX   =      4    mixing-type and parameters
     AMIX     =   0.40;   BMIX     =  1.00
     AMIX_MAG =   1.60;   BMIX_MAG =  1.00
     AMIN     =   0.10
     WC   =   100.;   INIMIX=   1;  MIXPRE=   1

 Intra band minimization:
   WEIMIN = 0.0010     energy-eigenvalue tresh-hold
   EBREAK =  0.10E-07  absolut break condition
   DEPER  =   0.30     relativ break condition  

   TIME   =   0.40     timestep for ELM

  volume/ion in A,a.u.               =      22.83       154.04
  Fermi-wavevector in a.u.,A,eV,Ry     =   0.727112  1.374042  7.193284  0.528691
  Thomas-Fermi vector in A             =   1.818254

 Write flags
   LWAVE  =      T    write WAVECAR
   LCHARG =      T    write CHGCAR
   LVTOT  =      F    write LOCPOT, total local potential
   LVHAR  =      F    write LOCPOT, Hartree potential only
   LELF   =      F    write electronic localiz. function (ELF)
   LORBIT =      0    0 simple, 1 ext, 2 COOP (PROOUT)


 Dipole corrections
   LMONO  =      F    monopole corrections only (constant potential shift)
   LDIPOL =      F    correct potential (dipole corrections)
   IDIPOL =      0    1-x, 2-y, 3-z, 4-all directions 
   EPSILON=  1.0000000 bulk dielectric constant

 Exchange correlation treatment:
   GGA     =    --    GGA type
   LEXCH   =     8    internal setting for exchange type
   VOSKOWN=      0    Vosko Wilk Nusair interpolation
   LHFCALC =     F    Hartree Fock is set to
   LHFONE  =     F    Hartree Fock one center treatment
   AEXX    =    0.0000 exact exchange contribution

 Linear response parameters
   LEPSILON=     F    determine dielectric tensor
   LRPA    =     F    only Hartree local field effects (RPA)
   LNABLA  =     F    use nabla operator in PAW spheres
   LVEL    =     F    velocity operator in full k-point grid
   LINTERFAST=   F  fast interpolation
   KINTER  =     0    interpolate to denser k-point grid
   CSHIFT  =0.1000    complex shift for real part using Kramers Kronig
   OMEGAMAX=  -1.0    maximum frequency
   RTIME   =    0.100 relaxation time in fs

 Orbital magnetization related:
   ORBITALMAG=     F  switch on orbital magnetization
   LCHIMAG   =     F  perturbation theory with respect to B field
   DQ        =  0.001000  dq finite difference perturbation B field



--------------------------------------------------------------------------------------------------------


 finite differences with symmetry
 charge density and potential will be updated during run
 non-spin polarized calculation
 Variant of blocked Davidson
 Davidson routine will perform the subspace rotation
 perform sub-space diagonalisation
    after iterative eigenvector-optimisation
 modified Broyden-mixing scheme, WC =      100.0
 initial mixing is a Kerker type mixing with AMIX =  0.4000 and BMIX =      1.0000
 Hartree-type preconditioning will be used
 using additional bands            16
 reciprocal scheme for non local part
 use partial core corrections
 calculate Harris-corrections to forces 
   (improved forces if not selfconsistent)
 use gradient corrections 
 use of overlap-Matrix (Vanderbilt PP)
 Methfessel and Paxton  Order N= 1 SIGMA  =   0.20


--------------------------------------------------------------------------------------------------------


  energy-cutoff  :      210.01
  volume of cell :      365.23
      direct lattice vectors                 reciprocal lattice vectors
     3.188180000 -5.522080000  0.000000000     0.000000000 -0.181091183  0.000000000
    -6.376340000  0.000000000  0.000000000    -0.156829780 -0.090545876  0.000000000
     0.000000000  0.000000000-10.372820000     0.000000000  0.000000000 -0.096405799

  length of vectors
     6.376351562  6.376340000 10.372820000     0.181091183  0.181091511  0.096405799



 k-points in units of 2pi/SCALE and weight: Magnesium                               
   0.00000000  0.00000000  0.00000000       0.037
   0.00000000 -0.06036373  0.00000000       0.222
  -0.05227659 -0.09054569  0.00000000       0.074
   0.00000000  0.00000000 -0.03213527       0.074
   0.00000000 -0.06036373 -0.03213527       0.444
  -0.05227659 -0.09054569 -0.03213527       0.148

 k-points in reciprocal lattice and weights: Magnesium                               
   0.00000000  0.00000000  0.00000000       0.037
   0.33333333  0.00000000  0.00000000       0.222
   0.33333333  0.33333333  0.00000000       0.074
   0.00000000  0.00000000  0.33333333       0.074
   0.33333333  0.00000000  0.33333333       0.444
   0.33333333  0.33333333  0.33333333       0.148

 position of ions in fractional coordinates (direct lattice) 
   0.00000000  0.00000000  0.00000000
   0.00000000  0.00000000  0.50000000
   0.00000000  0.50000000  0.00000000
   0.00000000  0.50000000  0.50000000
   0.50000000  0.00000000  0.00000000
   0.50000000  0.00000000  0.50000000
   0.50000000  0.50000000  0.00000000
   0.50000000  0.50000000  0.50000000
   0.33333333  0.16666667  0.25000000
   0.33333333  0.16666667  0.75000000
   0.33333333  0.66666667  0.25000000
   0.33333333  0.66666667  0.75000000
   0.83333333  0.16666667  0.25000000
   0.83333333  0.16666667  0.75000000
   0.83333333  0.66666667  0.25000000
   0.83333333  0.66666667  0.75000000

 position of ions in cartesian coordinates  (Angst):
   0.00000000  0.00000000  0.00000000
   0.00000000  0.00000000 -5.18641000
  -3.18817000  0.00000000  0.00000000
  -3.18817000  0.00000000 -5.18641000
   1.59409000 -2.76104000  0.00000000
   1.59409000 -2.76104000 -5.18641000
  -1.59408000 -2.76104000  0.00000000
  -1.59408000 -2.76104000 -5.18641000
   0.00000335 -1.84069334 -2.59320500
   0.00000335 -1.84069334 -7.77961500
  -3.18816665 -1.84069334 -2.59320500
  -3.18816665 -1.84069334 -7.77961500
   1.59409335 -4.60173334 -2.59320500
   1.59409335 -4.60173334 -7.77961500
  -1.59407665 -4.60173334 -2.59320500
  -1.59407665 -4.60173334 -7.77961500



--------------------------------------------------------------------------------------------------------


 k-point  1 :  0.00000.00000.0000  plane waves:    2539
 k-point  2 :  0.33330.00000.0000  plane waves:    2523
 k-point  3 :  0.33330.33330.0000  plane waves:    2502
 k-point  4 :  0.00000.00000.3333  plane waves:    2532
 k-point  5 :  0.33330.00000.3333  plane waves:    2525
 k-point  6 :  0.33330.33330.3333  plane waves:    2511

 maximum and minimum number of plane-waves per node :      2539     2502

 maximum number of plane-waves:      2539
 maximum index in each direction: 
   IXMAX=    7   IYMAX=    7   IZMAX=   12
   IXMIN=   -7   IYMIN=   -7   IZMIN=  -12

 NGX is ok and might be reduce to  30
 NGY is ok and might be reduce to  30
 NGZ is ok and might be reduce to  50

 serial   3D FFT for wavefunctions
 parallel 3D FFT for charge:
    minimum data exchange during FFTs selected (reduces bandwidth)


 total amount of memory used by VASP on root node    38655. kBytes
========================================================================

   base      :      30000. kBytes
   nonl-proj :       1628. kBytes
   fftplans  :       1803. kBytes
   grid      :       4149. kBytes
   one-center:         49. kBytes
   wavefun   :       1026. kBytes

 Broyden mixing: mesh for mixing (old mesh)
   NGX = 15   NGY = 15   NGZ = 25
  (NGX  = 60   NGY  = 60   NGZ  =100)
  gives a total of   5625 points

 initial charge density was supplied:
 charge density of overlapping atoms calculated
 number of electron      32.0000000 magnetization 
 keeping initial charge density in first step


--------------------------------------------------------------------------------------------------------


 Maximum index for augmentation-charges           799 (set IRDMAX)


--------------------------------------------------------------------------------------------------------


 First call to EWALD:  gamma=   0.248
 Maximum number of real-space cells 3x 3x 2
 Maximum number of reciprocal cells 3x 3x 4

    FEWALD:  cpu time    0.00: real time    0.01


----------------------------------------- Iteration    1(   1)  ---------------------------------------


    POTLOK:  cpu time    0.06: real time    0.09
    SETDIJ:  cpu time    0.01: real time    0.01
     EDDAV:  cpu time    0.49: real time    0.92
       DOS:  cpu time    0.00: real time    0.03
    --------------------------------------------
      LOOP:  cpu time    0.56: real time    1.06

 eigenvalue-minimisations  :   384
 total energy-change (2. order) : 0.7581452E+01  (-0.4952100E+03)
 number of electron      32.0000000 magnetization 
 augmentation part       32.0000000 magnetization 

 Free energy of the ion-electron system (eV)
  ---------------------------------------------------
  alpha Z        PSCENC =       -12.41552383
  Ewald energy   TEWEN  =      -469.14796519
  -1/2 Hartree   DENC   =        -0.46259097
  -exchange  EXHF       =         0.00000000
  -V(xc)+E(xc)   XCENC  =      -129.54257148
  PAW double counting   =       185.43239796       -8.54774324
  entropy T*S    EENTRO =        -0.02181559
  eigenvalues    EBANDS =        74.25895282
  atomic energy  EATOM  =       368.02831183
  ---------------------------------------------------
  free energy    TOTEN  =         7.58145230 eV

  energy without entropy =        7.60326789  energy(sigma->0) =        7.58872417


--------------------------------------------------------------------------------------------------------


 E-fermi :   5.9521     XC(G=0):  -8.1606     alpha+bet : -8.9067


 k-point   1 :       0.0000    0.0000    0.0000
  band No.  band energies     occupation 
      1      -2.8399      2.00000
      2      -1.0699      2.00000
      3      -0.8201      2.00000
      4       2.4408      2.00000
      5       2.5448      2.00000
      6       2.6904      2.00000
      7       2.8962      2.00000
      8       3.2363      2.00000
      9       3.3477      2.00000
     10       3.6618      2.00000
     11       3.8455      2.00000
     12       4.0169      2.00000
     13       4.1490      2.00000
     14       4.2978      2.00000
     15       4.3821      2.00000
     16       4.7033      2.00000
     17       4.8730      2.00000
     18       5.1875      2.00000
     19       5.8351      1.82660
     20       5.9556      0.97087
     21       6.6250     -0.00002
     22       6.8764      0.00000
     23       8.1986      0.00000
     24       8.7609      0.00000
     25       9.2767      0.00000
     26       9.6090      0.00000
     27      10.6506      0.00000
     28      11.6159      0.00000
     29      12.0131      0.00000
     30      12.4696      0.00000
     31      13.5862      0.00000
     32      14.1815      0.00000

 k-point   2 :       0.3333    0.0000    0.0000
  band No.  band energies     occupation 
      1      -1.9709      2.00000
      2      -0.5183      2.00000
      3      -0.3482      2.00000
      4      -0.1453      2.00000
      5       1.1829      2.00000
      6       1.5261      2.00000
      7       1.6458      2.00000
      8       1.7496      2.00000
      9       3.0423      2.00000
     10       3.2494      2.00000
     11       3.5146      2.00000
     12       3.7877      2.00000
     13       4.5540      2.00000
     14       5.1106      2.00000
     15       5.9227      1.24602
     16       6.2094     -0.06984
     17       6.6558     -0.00001
     18       6.8552      0.00000
     19       7.2745      0.00000
     20       7.6585      0.00000
     21       8.0394      0.00000
     22       8.2381      0.00000
     23       8.7254      0.00000
     24       9.3216      0.00000
     25       9.8202      0.00000
     26      10.2830      0.00000
     27      10.6035      0.00000
     28      10.9595      0.00000
     29      12.1121      0.00000
     30      12.7295      0.00000
     31      13.4253      0.00000
     32      14.3114      0.00000

 k-point   3 :       0.3333    0.3333    0.0000
  band No.  band energies     occupation 
      1      -0.8805      2.00000
      2      -0.6836      2.00000
      3      -0.5480      2.00000
      4       0.5825      2.00000
      5       0.6396      2.00000
      6       0.7546      2.00000
      7       0.9480      2.00000
      8       1.2837      2.00000
      9       1.4927      2.00000
     10       4.4656      2.00000
     11       4.6686      2.00000
     12       4.8366      2.00000
     13       5.0131      2.00000
     14       5.4514      2.00228
     15       5.8801      1.56825
     16       6.0659      0.18907
     17       6.5281     -0.00036
     18       6.7669      0.00000
     19       7.0721      0.00000
     20       7.2988      0.00000
     21       7.8968      0.00000
     22       8.7374      0.00000
     23       9.0961      0.00000
     24       9.8988      0.00000
     25      10.3772      0.00000
     26      10.5853      0.00000
     27      11.0778      0.00000
     28      11.3094      0.00000
     29      11.6970      0.00000
     30      12.2895      0.00000
     31      13.1200      0.00000
     32      13.6954      0.00000

 k-point   4 :       0.0000    0.0000    0.3333
  band No.  band energies     occupation 
      1      -2.5541      2.00000
      2      -1.9052      2.00000
      3       0.1208      2.00000
      4       1.7712      2.00000
      5       2.5871      2.00000
      6       2.6915      2.00000
      7       2.7874      2.00000
      8       2.8538      2.00000
      9       3.0553      2.00000
     10       3.3415      2.00000
     11       3.4697      2.00000
     12       3.6093      2.00000
     13       3.8144      2.00000
     14       4.0273      2.00000
     15       4.2891      2.00000
     16       5.0950      2.00000
     17       5.4945      2.00565
     18       5.9995      0.61161
     19       6.2990     -0.03415
     20       6.5078     -0.00061
     21       6.8892      0.00000
     22       7.5418      0.00000
     23       7.8549      0.00000
     24       8.7954      0.00000
     25       9.0769      0.00000
     26       9.8148      0.00000
     27      10.6519      0.00000
     28      11.6682      0.00000
     29      12.1953      0.00000
     30      13.0608      0.00000
     31      13.8228      0.00000
     32      15.1544      0.00000

 k-point   5 :       0.3333    0.0000    0.3333
  band No.  band energies     occupation 
      1      -1.8921      2.00000
      2      -1.1712      2.00000
      3       0.2625      2.00000
      4       0.3823      2.00000
      5       0.7497      2.00000
      6       1.7009      2.00000
      7       1.8595      2.00000
      8       2.0991      2.00000
      9       2.5376      2.00000
     10       2.6212      2.00000
     11       2.7954      2.00000
     12       4.1857      2.00000
     13       4.5019      2.00000
     14       4.7175      2.00000
     15       5.4589      2.00269
     16       5.6371      2.04844
     17       5.9834      0.73895
     18       6.5714     -0.00011
     19       6.8133      0.00000
     20       7.5533      0.00000
     21       8.4704      0.00000
     22       8.7799      0.00000
     23       9.2307      0.00000
     24       9.4255      0.00000
     25       9.8160      0.00000
     26      10.2879      0.00000
     27      10.9740      0.00000
     28      11.5842      0.00000
     29      12.0075      0.00000
     30      13.1975      0.00000
     31      13.9238      0.00000
     32      14.3534      0.00000

 k-point   6 :       0.3333    0.3333    0.3333
  band No.  band energies     occupation 
      1      -0.7135      2.00000
      2      -0.6139      2.00000
      3      -0.4078      2.00000
      4      -0.1992      2.00000
      5      -0.1239      2.00000
      6       0.4355      2.00000
      7       1.7214      2.00000
      8       1.9570      2.00000
      9       2.1286      2.00000
     10       3.2101      2.00000
     11       3.2938      2.00000
     12       3.8462      2.00000
     13       4.4850      2.00000
     14       4.7229      2.00000
     15       5.3649      2.00027
     16       5.6738      2.06416
     17       6.1815     -0.06884
     18       7.0498      0.00000
     19       7.6458      0.00000
     20       7.7321      0.00000
     21       8.1894      0.00000
     22       8.6059      0.00000
     23       9.0228      0.00000
     24       9.4883      0.00000
     25      10.1530      0.00000
     26      10.3303      0.00000
     27      10.6542      0.00000
     28      10.9061      0.00000
     29      11.6814      0.00000
     30      12.3089      0.00000
     31      12.8232      0.00000
     32      13.4871      0.00000


----------------------------------------- Iteration    1(   2)  ---------------------------------------


     EDDAV:  cpu time    0.52: real time    0.57
       DOS:  cpu time    0.00: real time    0.00
    --------------------------------------------
      LOOP:  cpu time    0.52: real time    0.57

 eigenvalue-minimisations  :   480
 total energy-change (2. order) :-0.3063187E+02  (-0.2804623E+02)
 number of electron      32.0000000 magnetization 
 augmentation part       32.0000000 magnetization 

 Free energy of the ion-electron system (eV)
  ---------------------------------------------------
  alpha Z        PSCENC =       -12.41552383
  Ewald energy   TEWEN  =      -469.14796519
  -1/2 Hartree   DENC   =        -0.46259097
  -exchange  EXHF       =         0.00000000
  -V(xc)+E(xc)   XCENC  =      -129.54257148
  PAW double counting   =       185.43239796       -8.54774324
  entropy T*S    EENTRO =        -0.04239833
  eigenvalues    EBANDS =        43.64766734
  atomic energy  EATOM  =       368.02831183
  ---------------------------------------------------
  free energy    TOTEN  =       -23.05041591 eV

  energy without entropy =      -23.00801758  energy(sigma->0) =      -23.03628314


--------------------------------------------------------------------------------------------------------


 E-fermi :   4.1144     XC(G=0):  -8.1606     alpha+bet : -8.9067


 k-point   1 :       0.0000    0.0000    0.0000
  band No.  band energies     occupation 
      1      -2.8955      2.00000
      2      -1.4929      2.00000
      3      -1.4835      2.00000
      4       1.9321      2.00000
      5       1.9456      2.00000
      6       1.9476      2.00000
      7       1.9740      2.00000
      8       1.9957      2.00000
      9       2.0377      2.00000
     10       2.4063      2.00000
     11       2.8676      2.00000
     12       2.9751      2.00000
     13       2.9840      2.00000
     14       2.9929      2.00000
     15       3.0069      2.00000
     16       3.0521      2.00000
     17       3.0724      2.00000
     18       3.6344      2.00358
     19       3.6486      2.00481
     20       3.6623      2.00632
     21       3.6892      2.01042
     22       3.7152      2.01621
     23       3.7540      2.02872
     24       6.7775      0.00000
     25       6.8231      0.00000
     26       6.9138      0.00000
     27       7.1535      0.00000
     28       7.1878      0.00000
     29       7.2937      0.00000
     30       7.4355      0.00000
     31       7.6372      0.00000
     32       7.8965      0.00000

 k-point   2 :       0.3333    0.0000    0.0000
  band No.  band energies     occupation 
      1      -2.3329      2.00000
      2      -0.9511      2.00000
      3      -0.9471      2.00000
      4      -0.7057      2.00000
      5       0.6572      2.00000
      6       0.6716      2.00000
      7       0.8951      2.00000
      8       0.9171      2.00000
      9       2.2292      2.00000
     10       2.2323      2.00000
     11       2.2615      2.00000
     12       2.2959      2.00000
     13       2.9179      2.00000
     14       3.4314      2.00002
     15       4.0320      1.63585
     16       4.0603      1.43934
     17       4.4764     -0.02808
     18       4.7758     -0.00003
     19       5.4292      0.00000
     20       5.4816      0.00000
     21       5.5457      0.00000
     22       5.6400      0.00000
     23       5.9975      0.00000
     24       6.0919      0.00000
     25       6.2013      0.00000
     26       6.5061      0.00000
     27       6.5997      0.00000
     28       7.1122      0.00000
     29       7.4334      0.00000
     30       7.9737      0.00000
     31       8.3059      0.00000
     32       9.1129      0.00000

 k-point   3 :       0.3333    0.3333    0.0000
  band No.  band energies     occupation 
      1      -1.2484      2.00000
      2      -1.2415      2.00000
      3      -1.2380      2.00000
      4       0.1179      2.00000
      5       0.1234      2.00000
      6       0.1279      2.00000
      7       0.1345      2.00000
      8       0.1519      2.00000
      9       0.1680      2.00000
     10       3.4906      2.00009
     11       3.5215      2.00023
     12       3.5558      2.00057
     13       3.8980      2.06337
     14       3.9185      2.04570
     15       3.9981      1.82278
     16       4.3132     -0.04903
     17       4.3526     -0.07056
     18       4.3823     -0.06746
     19       4.4018     -0.06068
     20       4.4713     -0.03008
     21       4.7916     -0.00002
     22       4.8390      0.00000
     23       5.6738      0.00000
     24       5.7901      0.00000
     25       8.2909      0.00000
     26       8.3793      0.00000
     27       8.4965      0.00000
     28       8.6430      0.00000
     29       8.7169      0.00000
     30       9.0203      0.00000
     31       9.1916      0.00000
     32       9.3920      0.00000

 k-point   4 :       0.0000    0.0000    0.3333
  band No.  band energies     occupation 
      1      -2.7351      2.00000
      2      -2.2596      2.00000
      3      -0.4184      2.00000
      4       0.9787      2.00000
      5       2.0670      2.00000
      6       2.0854      2.00000
      7       2.0951      2.00000
      8       2.0994      2.00000
      9       2.1228      2.00000
     10       2.1850      2.00000
     11       2.4908      2.00000
     12       2.5094      2.00000
     13       2.5276      2.00000
     14       2.5450      2.00000
     15       2.5710      2.00000
     16       2.5978      2.00000
     17       4.3716     -0.06984
     18       4.3947     -0.06343
     19       4.4001     -0.06138
     20       4.4398     -0.04362
     21       4.4513     -0.03846
     22       4.4890     -0.02357
     23       4.5526     -0.00822
     24       5.6621      0.00000
     25       5.6736      0.00000
     26       5.6785      0.00000
     27       5.7036      0.00000
     28       5.7364      0.00000
     29       5.8086      0.00000
     30       6.7568      0.00000
     31       9.1465      0.00000
     32       9.2053      0.00000

 k-point   5 :       0.3333    0.0000    0.3333
  band No.  band energies     occupation 
      1      -2.1761      2.00000
      2      -1.7023      2.00000
      3      -0.5414      2.00000
      4      -0.0927      2.00000
      5       0.1193      2.00000
      6       1.0532      2.00000
      7       1.0625      2.00000
      8       1.4691      2.00000
      9       1.4977      2.00000
     10       1.5156      2.00000
     11       1.7050      2.00000
     12       3.0578      2.00000
     13       3.2377      2.00000
     14       3.2590      2.00000
     15       4.0117      1.75458
     16       4.0717      1.35234
     17       4.7289     -0.00012
     18       4.7939     -0.00002
     19       4.8247     -0.00001
     20       4.8909      0.00000
     21       5.0911      0.00000
     22       5.7589      0.00000
     23       6.2842      0.00000
     24       6.3990      0.00000
     25       6.5043      0.00000
     26       7.0273      0.00000
     27       7.1569      0.00000
     28       7.4037      0.00000
     29       7.5438      0.00000
     30       7.9496      0.00000
     31       8.0993      0.00000
     32       8.5643      0.00000

 k-point   6 :       0.3333    0.3333    0.3333
  band No.  band energies     occupation 
      1      -1.0954      2.00000
      2      -1.0933      2.00000
      3      -1.0857      2.00000
      4      -0.6401      2.00000
      5      -0.6365      2.00000
      6      -0.6250      2.00000
      7       1.1755      2.00000
      8       1.1837      2.00000
      9       1.1971      2.00000
     10       2.5071      2.00000
     11       2.5105      2.00000
     12       2.5335      2.00000
     13       3.6209      2.00268
     14       3.6518      2.00513
     15       3.7065      2.01405
     16       4.0231      1.69075
     17       4.0632      1.41807
     18       4.1397      0.78765
     19       5.8654      0.00000
     20       6.0173      0.00000
     21       6.0885      0.00000
     22       6.1183      0.00000
     23       6.2909      0.00000
     24       6.5856      0.00000
     25       7.2905      0.00000
     26       7.6955      0.00000
     27       8.0607      0.00000
     28       8.1732      0.00000
     29       8.3051      0.00000
     30       8.5306      0.00000
     31       8.7639      0.00000
     32       8.7954      0.00000


----------------------------------------- Iteration    1(   3)  ---------------------------------------


     EDDAV:  cpu time    0.51: real time    0.51
       DOS:  cpu time    0.00: real time    0.00
    --------------------------------------------
      LOOP:  cpu time    0.52: real time    0.53

 eigenvalue-minimisations  :   480
 total energy-change (2. order) :-0.1189041E+01  (-0.1162469E+01)
 number of electron      32.0000000 magnetization 
 augmentation part       32.0000000 magnetization 

 Free energy of the ion-electron system (eV)
  ---------------------------------------------------
  alpha Z        PSCENC =       -12.41552383
  Ewald energy   TEWEN  =      -469.14796519
  -1/2 Hartree   DENC   =        -0.46259097
  -exchange  EXHF       =         0.00000000
  -V(xc)+E(xc)   XCENC  =      -129.54257148
  PAW double counting   =       185.43239796       -8.54774324
  entropy T*S    EENTRO =        -0.04970175
  eigenvalues    EBANDS =        42.46592981
  atomic energy  EATOM  =       368.02831183
  ---------------------------------------------------
  free energy    TOTEN  =       -24.23945686 eV

  energy without entropy =      -24.18975511  energy(sigma->0) =      -24.22288961


--------------------------------------------------------------------------------------------------------


 E-fermi :   4.0293     XC(G=0):  -8.1606     alpha+bet : -8.9067


 k-point   1 :       0.0000    0.0000    0.0000
  band No.  band energies     occupation 
      1      -2.8968      2.00000
      2      -1.5018      2.00000
      3      -1.5017      2.00000
      4       1.9152      2.00000
      5       1.9154      2.00000
      6       1.9155      2.00000
      7       1.9377      2.00000
      8       1.9379      2.00000
      9       1.9381      2.00000
     10       2.3590      2.00000
     11       2.8092      2.00000
     12       2.9629      2.00000
     13       2.9630      2.00000
     14       2.9631      2.00000
     15       2.9631      2.00000
     16       2.9633      2.00000
     17       2.9638      2.00000
     18       3.6217      2.01413
     19       3.6218      2.01415
     20       3.6220      2.01420
     21       3.6222      2.01423
     22       3.6225      2.01431
     23       3.6230      2.01443
     24       6.7327      0.00000
     25       6.7334      0.00000
     26       6.7381      0.00000
     27       7.0763      0.00000
     28       7.0771      0.00000
     29       7.0828      0.00000
     30       7.3491      0.00000
     31       7.3553      0.00000
     32       7.3668      0.00000

 k-point   2 :       0.3333    0.0000    0.0000
  band No.  band energies     occupation 
      1      -2.3473      2.00000
      2      -0.9605      2.00000
      3      -0.9605      2.00000
      4      -0.7188      2.00000
      5       0.6424      2.00000
      6       0.6426      2.00000
      7       0.8802      2.00000
      8       0.8805      2.00000
      9       2.2061      2.00000
     10       2.2062      2.00000
     11       2.2064      2.00000
     12       2.2066      2.00000
     13       2.8608      2.00000
     14       3.3392      2.00001
     15       3.9455      1.64482
     16       3.9464      1.63937
     17       4.3698     -0.03686
     18       4.6468     -0.00011
     19       5.3667      0.00000
     20       5.3671      0.00000
     21       5.3677      0.00000
     22       5.3699      0.00000
     23       5.8794      0.00000
     24       5.8801      0.00000
     25       5.9765      0.00000
     26       6.2953      0.00000
     27       6.2961      0.00000
     28       6.8831      0.00000
     29       6.8879      0.00000
     30       7.4698      0.00000
     31       7.4781      0.00000
     32       8.5237      0.00000

 k-point   3 :       0.3333    0.3333    0.0000
  band No.  band energies     occupation 
      1      -1.2586      2.00000
      2      -1.2585      2.00000
      3      -1.2584      2.00000
      4       0.1118      2.00000
      5       0.1118      2.00000
      6       0.1119      2.00000
      7       0.1119      2.00000
      8       0.1121      2.00000
      9       0.1122      2.00000
     10       3.4376      2.00024
     11       3.4860      2.00083
     12       3.4863      2.00084
     13       3.8664      1.98737
     14       3.8666      1.98687
     15       3.8671      1.98556
     16       4.2760     -0.07089
     17       4.2762     -0.07089
     18       4.3399     -0.05048
     19       4.3401     -0.05039
     20       4.3406     -0.05014
     21       4.7328     -0.00001
     22       4.7332     -0.00001
     23       5.6375      0.00000
     24       5.6405      0.00000
     25       8.0558      0.00000
     26       8.0755      0.00000
     27       8.1193      0.00000
     28       8.2317      0.00000
     29       8.2746      0.00000
     30       8.5159      0.00000
     31       8.5639      0.00000
     32       8.8840      0.00000

 k-point   4 :       0.0000    0.0000    0.3333
  band No.  band energies     occupation 
      1      -2.7408      2.00000
      2      -2.2741      2.00000
      3      -0.4310      2.00000
      4       0.9254      2.00000
      5       2.0572      2.00000
      6       2.0574      2.00000
      7       2.0578      2.00000
      8       2.0845      2.00000
      9       2.0846      2.00000
     10       2.0848      2.00000
     11       2.4728      2.00000
     12       2.4730      2.00000
     13       2.4732      2.00000
     14       2.5110      2.00000
     15       2.5111      2.00000
     16       2.5112      2.00000
     17       4.3491     -0.04622
     18       4.3493     -0.04612
     19       4.3494     -0.04607
     20       4.4035     -0.02370
     21       4.4035     -0.02370
     22       4.4038     -0.02360
     23       4.5109     -0.00346
     24       5.6276      0.00000
     25       5.6280      0.00000
     26       5.6292      0.00000
     27       5.6415      0.00000
     28       5.6418      0.00000
     29       5.6445      0.00000
     30       6.6783      0.00000
     31       9.0641      0.00000
     32       9.0775      0.00000

 k-point   5 :       0.3333    0.0000    0.3333
  band No.  band energies     occupation 
      1      -2.1921      2.00000
      2      -1.7281      2.00000
      3      -0.5663      2.00000
      4      -0.1109      2.00000
      5       0.1035      2.00000
      6       1.0295      2.00000
      7       1.0295      2.00000
      8       1.4510      2.00000
      9       1.4745      2.00000
     10       1.4747      2.00000
     11       1.6841      2.00000
     12       2.9937      2.00000
     13       3.1895      2.00000
     14       3.1896      2.00000
     15       3.9703      1.47601
     16       3.9709      1.47176
     17       4.6955     -0.00003
     18       4.6960     -0.00003
     19       4.7562      0.00000
     20       4.7569      0.00000
     21       5.0131      0.00000
     22       5.6117      0.00000
     23       6.1576      0.00000
     24       6.3045      0.00000
     25       6.3073      0.00000
     26       6.7908      0.00000
     27       7.0011      0.00000
     28       7.0115      0.00000
     29       7.1542      0.00000
     30       7.6273      0.00000
     31       7.6839      0.00000
     32       7.8155      0.00000

 k-point   6 :       0.3333    0.3333    0.3333
  band No.  band energies     occupation 
      1      -1.1052      2.00000
      2      -1.1052      2.00000
      3      -1.1051      2.00000
      4      -0.6469      2.00000
      5      -0.6469      2.00000
      6      -0.6467      2.00000
      7       1.1622      2.00000
      8       1.1623      2.00000
      9       1.1623      2.00000
     10       2.4888      2.00000
     11       2.4888      2.00000
     12       2.4890      2.00000
     13       3.5816      2.00688
     14       3.6178      2.01322
     15       3.6185      2.01338
     16       3.9760      1.43372
     17       3.9764      1.43100
     18       4.0129      1.13842
     19       5.7428      0.00000
     20       5.9425      0.00000
     21       5.9438      0.00000
     22       5.9463      0.00000
     23       6.2074      0.00000
     24       6.2169      0.00000
     25       7.0377      0.00000
     26       7.3462      0.00000
     27       7.3661      0.00000
     28       7.8634      0.00000
     29       7.8732      0.00000
     30       8.0940      0.00000
     31       8.2192      0.00000
     32       8.2885      0.00000


----------------------------------------- Iteration    1(   4)  ---------------------------------------


     EDDAV:  cpu time    0.48: real time    0.48
       DOS:  cpu time    0.00: real time    0.00
    --------------------------------------------
      LOOP:  cpu time    0.48: real time    0.50

 eigenvalue-minimisations  :   440
 total energy-change (2. order) :-0.1141127E-01  (-0.1140701E-01)
 number of electron      32.0000000 magnetization 
 augmentation part       32.0000000 magnetization 

 Free energy of the ion-electron system (eV)
  ---------------------------------------------------
  alpha Z        PSCENC =       -12.41552383
  Ewald energy   TEWEN  =      -469.14796519
  -1/2 Hartree   DENC   =        -0.46259097
  -exchange  EXHF       =         0.00000000
  -V(xc)+E(xc)   XCENC  =      -129.54257148
  PAW double counting   =       185.43239796       -8.54774324
  entropy T*S    EENTRO =        -0.04968356
  eigenvalues    EBANDS =        42.45450036
  atomic energy  EATOM  =       368.02831183
  ---------------------------------------------------
  free energy    TOTEN  =       -24.25086813 eV

  energy without entropy =      -24.20118457  energy(sigma->0) =      -24.23430694


--------------------------------------------------------------------------------------------------------


 E-fermi :   4.0285     XC(G=0):  -8.1606     alpha+bet : -8.9067


 k-point   1 :       0.0000    0.0000    0.0000
  band No.  band energies     occupation 
      1      -2.8968      2.00000
      2      -1.5019      2.00000
      3      -1.5019      2.00000
      4       1.9150      2.00000
      5       1.9150      2.00000
      6       1.9150      2.00000
      7       1.9375      2.00000
      8       1.9375      2.00000
      9       1.9375      2.00000
     10       2.3585      2.00000
     11       2.8087      2.00000
     12       2.9628      2.00000
     13       2.9628      2.00000
     14       2.9628      2.00000
     15       2.9628      2.00000
     16       2.9628      2.00000
     17       2.9628      2.00000
     18       3.6216      2.01427
     19       3.6216      2.01427
     20       3.6216      2.01427
     21       3.6216      2.01427
     22       3.6216      2.01428
     23       3.6216      2.01428
     24       6.7319      0.00000
     25       6.7319      0.00000
     26       6.7336      0.00000
     27       7.0761      0.00000
     28       7.0761      0.00000
     29       7.0764      0.00000
     30       7.3487      0.00000
     31       7.3489      0.00000
     32       7.3503      0.00000

 k-point   2 :       0.3333    0.0000    0.0000
  band No.  band energies     occupation 
      1      -2.3475      2.00000
      2      -0.9606      2.00000
      3      -0.9606      2.00000
      4      -0.7189      2.00000
      5       0.6423      2.00000
      6       0.6423      2.00000
      7       0.8800      2.00000
      8       0.8800      2.00000
      9       2.2059      2.00000
     10       2.2059      2.00000
     11       2.2059      2.00000
     12       2.2059      2.00000
     13       2.8604      2.00000
     14       3.3384      2.00001
     15       3.9447      1.64513
     16       3.9447      1.64503
     17       4.3695     -0.03670
     18       4.6459     -0.00011
     19       5.3666      0.00000
     20       5.3666      0.00000
     21       5.3666      0.00000
     22       5.3666      0.00000
     23       5.8788      0.00000
     24       5.8788      0.00000
     25       5.9752      0.00000
     26       6.2948      0.00000
     27       6.2948      0.00000
     28       6.8823      0.00000
     29       6.8825      0.00000
     30       7.4640      0.00000
     31       7.4654      0.00000
     32       8.5038      0.00000

 k-point   3 :       0.3333    0.3333    0.0000
  band No.  band energies     occupation 
      1      -1.2587      2.00000
      2      -1.2587      2.00000
      3      -1.2587      2.00000
      4       0.1117      2.00000
      5       0.1117      2.00000
      6       0.1117      2.00000
      7       0.1117      2.00000
      8       0.1117      2.00000
      9       0.1117      2.00000
     10       3.4372      2.00024
     11       3.4857      2.00084
     12       3.4857      2.00084
     13       3.8661      1.98624
     14       3.8661      1.98623
     15       3.8661      1.98621
     16       4.2755     -0.07088
     17       4.2755     -0.07088
     18       4.3396     -0.05029
     19       4.3396     -0.05029
     20       4.3396     -0.05029
     21       4.7321     -0.00001
     22       4.7322     -0.00001
     23       5.6367      0.00000
     24       5.6368      0.00000
     25       8.0444      0.00000
     26       8.0465      0.00000
     27       8.0508      0.00000
     28       8.2124      0.00000
     29       8.2192      0.00000
     30       8.4132      0.00000
     31       8.4930      0.00000
     32       8.5354      0.00000

 k-point   4 :       0.0000    0.0000    0.3333
  band No.  band energies     occupation 
      1      -2.7408      2.00000
      2      -2.2743      2.00000
      3      -0.4312      2.00000
      4       0.9250      2.00000
      5       2.0571      2.00000
      6       2.0571      2.00000
      7       2.0571      2.00000
      8       2.0843      2.00000
      9       2.0843      2.00000
     10       2.0843      2.00000
     11       2.4727      2.00000
     12       2.4727      2.00000
     13       2.4727      2.00000
     14       2.5107      2.00000
     15       2.5107      2.00000
     16       2.5108      2.00000
     17       4.3488     -0.04599
     18       4.3488     -0.04599
     19       4.3489     -0.04598
     20       4.4032     -0.02357
     21       4.4032     -0.02357
     22       4.4032     -0.02356
     23       4.5106     -0.00342
     24       5.6270      0.00000
     25       5.6270      0.00000
     26       5.6270      0.00000
     27       5.6409      0.00000
     28       5.6409      0.00000
     29       5.6410      0.00000
     30       6.6754      0.00000
     31       9.0505      0.00000
     32       9.0621      0.00000

 k-point   5 :       0.3333    0.0000    0.3333
  band No.  band energies     occupation 
      1      -2.1924      2.00000
      2      -1.7285      2.00000
      3      -0.5665      2.00000
      4      -0.1111      2.00000
      5       0.1034      2.00000
      6       1.0292      2.00000
      7       1.0292      2.00000
      8       1.4507      2.00000
      9       1.4743      2.00000
     10       1.4743      2.00000
     11       1.6839      2.00000
     12       2.9931      2.00000
     13       3.1890      2.00000
     14       3.1890      2.00000
     15       3.9699      1.47377
     16       3.9699      1.47363
     17       4.6950     -0.00003
     18       4.6950     -0.00003
     19       4.7552      0.00000
     20       4.7552      0.00000
     21       5.0118      0.00000
     22       5.6043      0.00000
     23       6.1507      0.00000
     24       6.3034      0.00000
     25       6.3035      0.00000
     26       6.7869      0.00000
     27       6.9989      0.00000
     28       6.9997      0.00000
     29       7.1458      0.00000
     30       7.6138      0.00000
     31       7.6274      0.00000
     32       7.8091      0.00000

 k-point   6 :       0.3333    0.3333    0.3333
  band No.  band energies     occupation 
      1      -1.1053      2.00000
      2      -1.1053      2.00000
      3      -1.1053      2.00000
      4      -0.6470      2.00000
      5      -0.6470      2.00000
      6      -0.6470      2.00000
      7       1.1620      2.00000
      8       1.1620      2.00000
      9       1.1620      2.00000
     10       2.4886      2.00000
     11       2.4886      2.00000
     12       2.4886      2.00000
     13       3.5812      2.00692
     14       3.6175      2.01333
     15       3.6175      2.01333
     16       3.9757      1.43030
     17       3.9757      1.43017
     18       4.0126      1.13453
     19       5.7401      0.00000
     20       5.9418      0.00000
     21       5.9418      0.00000
     22       5.9418      0.00000
     23       6.2066      0.00000
     24       6.2070      0.00000
     25       7.0335      0.00000
     26       7.3324      0.00000
     27       7.3334      0.00000
     28       7.8416      0.00000
     29       7.8425      0.00000
     30       7.8919      0.00000
     31       8.1823      0.00000
     32       8.1911      0.00000


----------------------------------------- Iteration    1(   5)  ---------------------------------------


     EDDAV:  cpu time    0.49: real time    0.49
       DOS:  cpu time    0.00: real time    0.00
    CHARGE:  cpu time    0.06: real time    0.08
    MIXING:  cpu time    0.00: real time    0.02
    --------------------------------------------
      LOOP:  cpu time    0.56: real time    0.60

 eigenvalue-minimisations  :   456
 total energy-change (2. order) :-0.1942007E-03  (-0.1941979E-03)
 number of electron      32.0000000 magnetization 
 augmentation part        0.1228551 magnetization 

 Broyden mixing:
  rms(total) = 0.28322E+00    rms(broyden)= 0.28319E+00
  rms(prec ) = 0.37402E+00
  weight for this iteration     100.00

 Free energy of the ion-electron system (eV)
  ---------------------------------------------------
  alpha Z        PSCENC =       -12.41552383
  Ewald energy   TEWEN  =      -469.14796519
  -1/2 Hartree   DENC   =        -0.46259097
  -exchange  EXHF       =         0.00000000
  -V(xc)+E(xc)   XCENC  =      -129.54257148
  PAW double counting   =       185.43239796       -8.54774324
  entropy T*S    EENTRO =        -0.04968349
  eigenvalues    EBANDS =        42.45430608
  atomic energy  EATOM  =       368.02831183
  ---------------------------------------------------
  free energy    TOTEN  =       -24.25106233 eV

  energy without entropy =      -24.20137884  energy(sigma->0) =      -24.23450117


--------------------------------------------------------------------------------------------------------


 E-fermi :   4.0285     XC(G=0):  -8.1606     alpha+bet : -8.9067


 k-point   1 :       0.0000    0.0000    0.0000
  band No.  band energies     occupation 
      1      -2.8968      2.00000
      2      -1.5019      2.00000
      3      -1.5019      2.00000
      4       1.9150      2.00000
      5       1.9150      2.00000
      6       1.9150      2.00000
      7       1.9375      2.00000
      8       1.9375      2.00000
      9       1.9375      2.00000
     10       2.3585      2.00000
     11       2.8087      2.00000
     12       2.9628      2.00000
     13       2.9628      2.00000
     14       2.9628      2.00000
     15       2.9628      2.00000
     16       2.9628      2.00000
     17       2.9628      2.00000
     18       3.6216      2.01427
     19       3.6216      2.01427
     20       3.6216      2.01427
     21       3.6216      2.01427
     22       3.6216      2.01428
     23       3.6216      2.01428
     24       6.7319      0.00000
     25       6.7319      0.00000
     26       6.7319      0.00000
     27       7.0761      0.00000
     28       7.0761      0.00000
     29       7.0761      0.00000
     30       7.3487      0.00000
     31       7.3487      0.00000
     32       7.3487      0.00000

 k-point   2 :       0.3333    0.0000    0.0000
  band No.  band energies     occupation 
      1      -2.3475      2.00000
      2      -0.9606      2.00000
      3      -0.9606      2.00000
      4      -0.7189      2.00000
      5       0.6423      2.00000
      6       0.6423      2.00000
      7       0.8800      2.00000
      8       0.8800      2.00000
      9       2.2059      2.00000
     10       2.2059      2.00000
     11       2.2059      2.00000
     12       2.2059      2.00000
     13       2.8604      2.00000
     14       3.3384      2.00001
     15       3.9447      1.64517
     16       3.9447      1.64503
     17       4.3695     -0.03669
     18       4.6458     -0.00011
     19       5.3665      0.00000
     20       5.3665      0.00000
     21       5.3666      0.00000
     22       5.3666      0.00000
     23       5.8788      0.00000
     24       5.8788      0.00000
     25       5.9751      0.00000
     26       6.2948      0.00000
     27       6.2948      0.00000
     28       6.8822      0.00000
     29       6.8822      0.00000
     30       7.4636      0.00000
     31       7.4636      0.00000
     32       8.5014      0.00000

 k-point   3 :       0.3333    0.3333    0.0000
  band No.  band energies     occupation 
      1      -1.2587      2.00000
      2      -1.2587      2.00000
      3      -1.2587      2.00000
      4       0.1117      2.00000
      5       0.1117      2.00000
      6       0.1117      2.00000
      7       0.1117      2.00000
      8       0.1117      2.00000
      9       0.1117      2.00000
     10       3.4372      2.00024
     11       3.4857      2.00084
     12       3.4857      2.00084
     13       3.8661      1.98623
     14       3.8661      1.98622
     15       3.8661      1.98622
     16       4.2755     -0.07088
     17       4.2755     -0.07088
     18       4.3395     -0.05029
     19       4.3395     -0.05029
     20       4.3396     -0.05029
     21       4.7321     -0.00001
     22       4.7321     -0.00001
     23       5.6367      0.00000
     24       5.6367      0.00000
     25       8.0440      0.00000
     26       8.0441      0.00000
     27       8.0446      0.00000
     28       8.2112      0.00000
     29       8.2122      0.00000
     30       8.3954      0.00000
     31       8.4866      0.00000
     32       8.4908      0.00000

 k-point   4 :       0.0000    0.0000    0.3333
  band No.  band energies     occupation 
      1      -2.7408      2.00000
      2      -2.2743      2.00000
      3      -0.4312      2.00000
      4       0.9249      2.00000
      5       2.0571      2.00000
      6       2.0571      2.00000
      7       2.0571      2.00000
      8       2.0843      2.00000
      9       2.0843      2.00000
     10       2.0843      2.00000
     11       2.4727      2.00000
     12       2.4727      2.00000
     13       2.4727      2.00000
     14       2.5107      2.00000
     15       2.5107      2.00000
     16       2.5107      2.00000
     17       4.3488     -0.04599
     18       4.3488     -0.04599
     19       4.3489     -0.04598
     20       4.4031     -0.02357
     21       4.4031     -0.02357
     22       4.4032     -0.02356
     23       4.5106     -0.00342
     24       5.6270      0.00000
     25       5.6270      0.00000
     26       5.6270      0.00000
     27       5.6409      0.00000
     28       5.6409      0.00000
     29       5.6410      0.00000
     30       6.6754      0.00000
     31       9.0502      0.00000
     32       9.0618      0.00000

 k-point   5 :       0.3333    0.0000    0.3333
  band No.  band energies     occupation 
      1      -2.1924      2.00000
      2      -1.7285      2.00000
      3      -0.5666      2.00000
      4      -0.1111      2.00000
      5       0.1034      2.00000
      6       1.0292      2.00000
      7       1.0292      2.00000
      8       1.4507      2.00000
      9       1.4743      2.00000
     10       1.4743      2.00000
     11       1.6839      2.00000
     12       2.9931      2.00000
     13       3.1890      2.00000
     14       3.1890      2.00000
     15       3.9698      1.47378
     16       3.9699      1.47365
     17       4.6950     -0.00003
     18       4.6950     -0.00003
     19       4.7552      0.00000
     20       4.7552      0.00000
     21       5.0118      0.00000
     22       5.6043      0.00000
     23       6.1506      0.00000
     24       6.3034      0.00000
     25       6.3034      0.00000
     26       6.7868      0.00000
     27       6.9989      0.00000
     28       6.9989      0.00000
     29       7.1454      0.00000
     30       7.6103      0.00000
     31       7.6126      0.00000
     32       7.8084      0.00000

 k-point   6 :       0.3333    0.3333    0.3333
  band No.  band energies     occupation 
      1      -1.1053      2.00000
      2      -1.1053      2.00000
      3      -1.1053      2.00000
      4      -0.6470      2.00000
      5      -0.6470      2.00000
      6      -0.6470      2.00000
      7       1.1620      2.00000
      8       1.1620      2.00000
      9       1.1620      2.00000
     10       2.4886      2.00000
     11       2.4886      2.00000
     12       2.4886      2.00000
     13       3.5812      2.00692
     14       3.6175      2.01333
     15       3.6175      2.01333
     16       3.9757      1.43025
     17       3.9757      1.43014
     18       4.0126      1.13446
     19       5.7400      0.00000
     20       5.9417      0.00000
     21       5.9417      0.00000
     22       5.9417      0.00000
     23       6.2066      0.00000
     24       6.2066      0.00000
     25       7.0335      0.00000
     26       7.3321      0.00000
     27       7.3322      0.00000
     28       7.8406      0.00000
     29       7.8407      0.00000
     30       7.8523      0.00000
     31       8.1788      0.00000
     32       8.1806      0.00000


----------------------------------------- Iteration    1(   6)  ---------------------------------------


    POTLOK:  cpu time    0.06: real time    0.06
    SETDIJ:  cpu time    0.00: real time    0.00
     EDDAV:  cpu time    0.49: real time    0.49
       DOS:  cpu time    0.00: real time    0.00
    CHARGE:  cpu time    0.06: real time    0.06
    MIXING:  cpu time    0.00: real time    0.02
    --------------------------------------------
      LOOP:  cpu time    0.62: real time    0.65

 eigenvalue-minimisations  :   448
 total energy-change (2. order) : 0.5689833E-02  (-0.2971882E-03)
 number of electron      32.0000000 magnetization 
 augmentation part        0.1214207 magnetization 

 Broyden mixing:
  rms(total) = 0.18084E+00    rms(broyden)= 0.18083E+00
  rms(prec ) = 0.24099E+00
  weight for this iteration     100.00

 eigenvalues of (default mixing * dielectric matrix)
  average eigenvalue GAMMA=   2.7409
  2.7409

 Free energy of the ion-electron system (eV)
  ---------------------------------------------------
  alpha Z        PSCENC =       -12.41552383
  Ewald energy   TEWEN  =      -469.14796519
  -1/2 Hartree   DENC   =        -0.45402525
  -exchange  EXHF       =         0.00000000
  -V(xc)+E(xc)   XCENC  =      -129.18108837
  PAW double counting   =       185.28431583       -8.36124285
  entropy T*S    EENTRO =        -0.04979537
  eigenvalues    EBANDS =        42.05164070
  atomic energy  EATOM  =       368.02831183
  ---------------------------------------------------
  free energy    TOTEN  =       -24.24537250 eV

  energy without entropy =      -24.19557712  energy(sigma->0) =      -24.22877404


--------------------------------------------------------------------------------------------------------


 E-fermi :   4.0150     XC(G=0):  -8.1792     alpha+bet : -8.9067


 k-point   1 :       0.0000    0.0000    0.0000
  band No.  band energies     occupation 
      1      -2.9087      2.00000
      2      -1.5140      2.00000
      3      -1.5140      2.00000
      4       1.9034      2.00000
      5       1.9034      2.00000
      6       1.9035      2.00000
      7       1.9237      2.00000
      8       1.9237      2.00000
      9       1.9237      2.00000
     10       2.3473      2.00000
     11       2.7945      2.00000
     12       2.9487      2.00000
     13       2.9487      2.00000
     14       2.9488      2.00000
     15       2.9488      2.00000
     16       2.9488      2.00000
     17       2.9488      2.00000
     18       3.6109      2.01494
     19       3.6109      2.01494
     20       3.6109      2.01495
     21       3.6109      2.01495
     22       3.6109      2.01495
     23       3.6109      2.01495
     24       6.7197      0.00000
     25       6.7197      0.00000
     26       6.7197      0.00000
     27       7.0678      0.00000
     28       7.0678      0.00000
     29       7.0678      0.00000
     30       7.3359      0.00000
     31       7.3359      0.00000
     32       7.3359      0.00000

 k-point   2 :       0.3333    0.0000    0.0000
  band No.  band energies     occupation 
      1      -2.3595      2.00000
      2      -0.9728      2.00000
      3      -0.9728      2.00000
      4      -0.7312      2.00000
      5       0.6298      2.00000
      6       0.6298      2.00000
      7       0.8675      2.00000
      8       0.8675      2.00000
      9       2.1931      2.00000
     10       2.1931      2.00000
     11       2.1931      2.00000
     12       2.1931      2.00000
     13       2.8493      2.00000
     14       3.3241      2.00001
     15       3.9314      1.64370
     16       3.9314      1.64349
     17       4.3586     -0.03554
     18       4.6304     -0.00012
     19       5.3544      0.00000
     20       5.3544      0.00000
     21       5.3545      0.00000
     22       5.3545      0.00000
     23       5.8681      0.00000
     24       5.8681      0.00000
     25       5.9640      0.00000
     26       6.2807      0.00000
     27       6.2807      0.00000
     28       6.8700      0.00000
     29       6.8700      0.00000
     30       7.4516      0.00000
     31       7.4516      0.00000
     32       8.4894      0.00000

 k-point   3 :       0.3333    0.3333    0.0000
  band No.  band energies     occupation 
      1      -1.2709      2.00000
      2      -1.2709      2.00000
      3      -1.2709      2.00000
      4       0.0993      2.00000
      5       0.0993      2.00000
      6       0.0993      2.00000
      7       0.0993      2.00000
      8       0.0993      2.00000
      9       0.0993      2.00000
     10       3.4271      2.00026
     11       3.4714      2.00083
     12       3.4714      2.00083
     13       3.8552      1.97971
     14       3.8552      1.97970
     15       3.8552      1.97969
     16       4.2597     -0.07092
     17       4.2597     -0.07092
     18       4.3246     -0.05094
     19       4.3246     -0.05093
     20       4.3246     -0.05093
     21       4.7223     -0.00001
     22       4.7223     -0.00001
     23       5.6254      0.00000
     24       5.6254      0.00000
     25       8.0330      0.00000
     26       8.0330      0.00000
     27       8.0331      0.00000
     28       8.1993      0.00000
     29       8.1995      0.00000
     30       8.3808      0.00000
     31       8.4732      0.00000
     32       8.4738      0.00000

 k-point   4 :       0.0000    0.0000    0.3333
  band No.  band energies     occupation 
      1      -2.7528      2.00000
      2      -2.2863      2.00000
      3      -0.4435      2.00000
      4       0.9126      2.00000
      5       2.0454      2.00000
      6       2.0455      2.00000
      7       2.0455      2.00000
      8       2.0704      2.00000
      9       2.0704      2.00000
     10       2.0704      2.00000
     11       2.4608      2.00000
     12       2.4608      2.00000
     13       2.4608      2.00000
     14       2.4966      2.00000
     15       2.4966      2.00000
     16       2.4966      2.00000
     17       4.3384     -0.04455
     18       4.3384     -0.04455
     19       4.3385     -0.04454
     20       4.3901     -0.02342
     21       4.3901     -0.02341
     22       4.3901     -0.02341
     23       4.4977     -0.00338
     24       5.6166      0.00000
     25       5.6166      0.00000
     26       5.6166      0.00000
     27       5.6277      0.00000
     28       5.6277      0.00000
     29       5.6277      0.00000
     30       6.6626      0.00000
     31       9.0358      0.00000
     32       9.0505      0.00000

 k-point   5 :       0.3333    0.0000    0.3333
  band No.  band energies     occupation 
      1      -2.2044      2.00000
      2      -1.7406      2.00000
      3      -0.5789      2.00000
      4      -0.1235      2.00000
      5       0.0910      2.00000
      6       1.0167      2.00000
      7       1.0167      2.00000
      8       1.4384      2.00000
      9       1.4617      2.00000
     10       1.4617      2.00000
     11       1.6713      2.00000
     12       2.9805      2.00000
     13       3.1759      2.00000
     14       3.1759      2.00000
     15       3.9559      1.47697
     16       3.9559      1.47673
     17       4.6832     -0.00002
     18       4.6833     -0.00002
     19       4.7442      0.00000
     20       4.7442      0.00000
     21       4.9988      0.00000
     22       5.5914      0.00000
     23       6.1383      0.00000
     24       6.2910      0.00000
     25       6.2911      0.00000
     26       6.7749      0.00000
     27       6.9860      0.00000
     28       6.9861      0.00000
     29       7.1325      0.00000
     30       7.5977      0.00000
     31       7.5984      0.00000
     32       7.7960      0.00000

 k-point   6 :       0.3333    0.3333    0.3333
  band No.  band energies     occupation 
      1      -1.1175      2.00000
      2      -1.1175      2.00000
      3      -1.1175      2.00000
      4      -0.6593      2.00000
      5      -0.6593      2.00000
      6      -0.6593      2.00000
      7       1.1495      2.00000
      8       1.1495      2.00000
      9       1.1495      2.00000
     10       2.4761      2.00000
     11       2.4761      2.00000
     12       2.4761      2.00000
     13       3.5712      2.00741
     14       3.6031      2.01312
     15       3.6031      2.01312
     16       3.9608      1.44097
     17       3.9608      1.44087
     18       4.0027      1.10431
     19       5.7303      0.00000
     20       5.9283      0.00000
     21       5.9283      0.00000
     22       5.9283      0.00000
     23       6.1945      0.00000
     24       6.1945      0.00000
     25       7.0238      0.00000
     26       7.3197      0.00000
     27       7.3197      0.00000
     28       7.8268      0.00000
     29       7.8268      0.00000
     30       7.8281      0.00000
     31       8.1666      0.00000
     32       8.1667      0.00000


----------------------------------------- Iteration    1(   7)  ---------------------------------------


    POTLOK:  cpu time    0.06: real time    0.06
    SETDIJ:  cpu time    0.00: real time    0.00
     EDDAV:  cpu time    0.48: real time    0.48
       DOS:  cpu time    0.00: real time    0.00
    CHARGE:  cpu time    0.06: real time    0.06
    MIXING:  cpu time    0.00: real time    0.01
    --------------------------------------------
      LOOP:  cpu time    0.61: real time    0.62

 eigenvalue-minimisations  :   432
 total energy-change (2. order) : 0.2594327E-01  (-0.8876268E-03)
 number of electron      32.0000000 magnetization 
 augmentation part        0.1187159 magnetization 

 Broyden mixing:
  rms(total) = 0.11461E-01    rms(broyden)= 0.11460E-01
  rms(prec ) = 0.12485E-01
  weight for this iteration     100.00

 eigenvalues of (default mixing * dielectric matrix)
  average eigenvalue GAMMA=   2.5846
  2.5846  2.5846

 Free energy of the ion-electron system (eV)
  ---------------------------------------------------
  alpha Z        PSCENC =       -12.41552383
  Ewald energy   TEWEN  =      -469.14796519
  -1/2 Hartree   DENC   =        -0.93406143
  -exchange  EXHF       =         0.00000000
  -V(xc)+E(xc)   XCENC  =      -128.31899731
  PAW double counting   =       184.97645423       -7.99679889
  entropy T*S    EENTRO =        -0.04985779
  eigenvalues    EBANDS =        41.63900916
  atomic energy  EATOM  =       368.02831183
  ---------------------------------------------------
  free energy    TOTEN  =       -24.21942923 eV

  energy without entropy =      -24.16957144  energy(sigma->0) =      -24.20280997


--------------------------------------------------------------------------------------------------------


 E-fermi :   4.0014     XC(G=0):  -8.2038     alpha+bet : -8.9067


 k-point   1 :       0.0000    0.0000    0.0000
  band No.  band energies     occupation 
      1      -2.9207      2.00000
      2      -1.5264      2.00000
      3      -1.5264      2.00000
      4       1.8923      2.00000
      5       1.8923      2.00000
      6       1.8923      2.00000
      7       1.9085      2.00000
      8       1.9085      2.00000
      9       1.9086      2.00000
     10       2.3377      2.00000
     11       2.7774      2.00000
     12       2.9346      2.00000
     13       2.9346      2.00000
     14       2.9346      2.00000
     15       2.9346      2.00000
     16       2.9346      2.00000
     17       2.9346      2.00000
     18       3.5993      2.01545
     19       3.5993      2.01545
     20       3.5993      2.01545
     21       3.5993      2.01545
     22       3.5993      2.01546
     23       3.5993      2.01546
     24       6.7072      0.00000
     25       6.7072      0.00000
     26       6.7072      0.00000
     27       7.0638      0.00000
     28       7.0638      0.00000
     29       7.0638      0.00000
     30       7.3191      0.00000
     31       7.3191      0.00000
     32       7.3191      0.00000

 k-point   2 :       0.3333    0.0000    0.0000
  band No.  band energies     occupation 
      1      -2.3716      2.00000
      2      -0.9853      2.00000
      3      -0.9853      2.00000
      4      -0.7438      2.00000
      5       0.6170      2.00000
      6       0.6170      2.00000
      7       0.8546      2.00000
      8       0.8546      2.00000
      9       2.1800      2.00000
     10       2.1800      2.00000
     11       2.1800      2.00000
     12       2.1800      2.00000
     13       2.8399      2.00000
     14       3.3067      2.00001
     15       3.9177      1.64374
     16       3.9178      1.64361
     17       4.3495     -0.03361
     18       4.6132     -0.00013
     19       5.3418      0.00000
     20       5.3418      0.00000
     21       5.3419      0.00000
     22       5.3419      0.00000
     23       5.8591      0.00000
     24       5.8591      0.00000
     25       5.9505      0.00000
     26       6.2653      0.00000
     27       6.2653      0.00000
     28       6.8573      0.00000
     29       6.8573      0.00000
     30       7.4364      0.00000
     31       7.4364      0.00000
     32       8.4764      0.00000

 k-point   3 :       0.3333    0.3333    0.0000
  band No.  band energies     occupation 
      1      -1.2833      2.00000
      2      -1.2833      2.00000
      3      -1.2833      2.00000
      4       0.0866      2.00000
      5       0.0866      2.00000
      6       0.0866      2.00000
      7       0.0866      2.00000
      8       0.0866      2.00000
      9       0.0866      2.00000
     10       3.4185      2.00030
     11       3.4558      2.00079
     12       3.4558      2.00079
     13       3.8460      1.96783
     14       3.8460      1.96782
     15       3.8460      1.96782
     16       4.2433     -0.07085
     17       4.2433     -0.07085
     18       4.3069     -0.05282
     19       4.3069     -0.05281
     20       4.3069     -0.05281
     21       4.7139     -0.00001
     22       4.7139     -0.00001
     23       5.6111      0.00000
     24       5.6111      0.00000
     25       8.0226      0.00000
     26       8.0226      0.00000
     27       8.0226      0.00000
     28       8.1875      0.00000
     29       8.1876      0.00000
     30       8.3650      0.00000
     31       8.4573      0.00000
     32       8.4574      0.00000

 k-point   4 :       0.0000    0.0000    0.3333
  band No.  band energies     occupation 
      1      -2.7647      2.00000
      2      -2.2984      2.00000
      3      -0.4560      2.00000
      4       0.9000      2.00000
      5       2.0343      2.00000
      6       2.0343      2.00000
      7       2.0343      2.00000
      8       2.0552      2.00000
      9       2.0552      2.00000
     10       2.0553      2.00000
[...]
     -1.594077 -4.601733 -2.593205     0.000000    0.000000   -0.000189  
     -1.594077 -4.601733 -7.779615     0.000000    0.000000   -0.000189  

  37 f  =    3.756399 THz    23.602148 2PiTHz  125.299964 cm-1    15.535221 meV
             X         Y         Z           dx          dy          dz
      0.000000  0.000000  0.000000    -0.111255    0.223880    0.000000  
      0.000000  0.000000 -5.186410    -0.111255    0.223880    0.000000  
     -3.188170  0.000000  0.000000    -0.111255    0.223880    0.000000  
     -3.188170  0.000000 -5.186410    -0.111255    0.223880    0.000000  
      1.594090 -2.761040  0.000000    -0.111255    0.223880    0.000000  
      1.594090 -2.761040 -5.186410    -0.111255    0.223880    0.000000  
     -1.594080 -2.761040  0.000000    -0.111255    0.223880    0.000000  
     -1.594080 -2.761040 -5.186410    -0.111255    0.223880    0.000000  
      0.000003 -1.840693 -2.593205     0.111255   -0.223880    0.000000  
      0.000003 -1.840693 -7.779615     0.111255   -0.223880    0.000000  
     -3.188167 -1.840693 -2.593205     0.111255   -0.223880    0.000000  
     -3.188167 -1.840693 -7.779615     0.111255   -0.223880    0.000000  
      1.594093 -4.601733 -2.593205     0.111255   -0.223880    0.000000  
      1.594093 -4.601733 -7.779615     0.111255   -0.223880    0.000000  
     -1.594077 -4.601733 -2.593205     0.111255   -0.223880    0.000000  
     -1.594077 -4.601733 -7.779615     0.111255   -0.223880    0.000000  

  38 f  =    3.756390 THz    23.602094 2PiTHz  125.299679 cm-1    15.535186 meV
             X         Y         Z           dx          dy          dz
      0.000000  0.000000  0.000000    -0.223880   -0.111255    0.000000  
      0.000000  0.000000 -5.186410    -0.223880   -0.111255    0.000000  
     -3.188170  0.000000  0.000000    -0.223880   -0.111255    0.000000  
     -3.188170  0.000000 -5.186410    -0.223880   -0.111255    0.000000  
      1.594090 -2.761040  0.000000    -0.223880   -0.111255    0.000000  
      1.594090 -2.761040 -5.186410    -0.223880   -0.111255    0.000000  
     -1.594080 -2.761040  0.000000    -0.223880   -0.111255    0.000000  
     -1.594080 -2.761040 -5.186410    -0.223880   -0.111255    0.000000  
      0.000003 -1.840693 -2.593205     0.223880    0.111255    0.000000  
      0.000003 -1.840693 -7.779615     0.223880    0.111255    0.000000  
     -3.188167 -1.840693 -2.593205     0.223880    0.111255    0.000000  
     -3.188167 -1.840693 -7.779615     0.223880    0.111255    0.000000  
      1.594093 -4.601733 -2.593205     0.223880    0.111255    0.000000  
      1.594093 -4.601733 -7.779615     0.223880    0.111255    0.000000  
     -1.594077 -4.601733 -2.593205     0.223880    0.111255    0.000000  
     -1.594077 -4.601733 -7.779615     0.223880    0.111255    0.000000  

  39 f  =    3.744732 THz    23.528843 2PiTHz  124.910798 cm-1    15.486971 meV
             X         Y         Z           dx          dy          dz
      0.000000  0.000000  0.000000    -0.125000    0.216506    0.000000  
      0.000000  0.000000 -5.186410    -0.125000    0.216506    0.000000  
     -3.188170  0.000000  0.000000     0.125000   -0.216506    0.000000  
     -3.188170  0.000000 -5.186410     0.125000   -0.216506    0.000000  
      1.594090 -2.761040  0.000000    -0.125000    0.216506    0.000000  
      1.594090 -2.761040 -5.186410    -0.125000    0.216506    0.000000  
     -1.594080 -2.761040  0.000000     0.125000   -0.216506    0.000000  
     -1.594080 -2.761040 -5.186410     0.125000   -0.216506    0.000000  
      0.000003 -1.840693 -2.593205    -0.125000    0.216506    0.000000  
      0.000003 -1.840693 -7.779615    -0.125000    0.216506    0.000000  
     -3.188167 -1.840693 -2.593205     0.125000   -0.216506    0.000000  
     -3.188167 -1.840693 -7.779615     0.125000   -0.216506    0.000000  
      1.594093 -4.601733 -2.593205    -0.125000    0.216506    0.000000  
      1.594093 -4.601733 -7.779615    -0.125000    0.216506    0.000000  
     -1.594077 -4.601733 -2.593205     0.125000   -0.216506    0.000000  
     -1.594077 -4.601733 -7.779615     0.125000   -0.216506    0.000000  

  40 f  =    3.744726 THz    23.528806 2PiTHz  124.910602 cm-1    15.486946 meV
             X         Y         Z           dx          dy          dz
      0.000000  0.000000  0.000000     0.125000    0.216506    0.000000  
      0.000000  0.000000 -5.186410     0.125000    0.216506    0.000000  
     -3.188170  0.000000  0.000000    -0.125000   -0.216506    0.000000  
     -3.188170  0.000000 -5.186410    -0.125000   -0.216506    0.000000  
      1.594090 -2.761040  0.000000    -0.125000   -0.216506    0.000000  
      1.594090 -2.761040 -5.186410    -0.125000   -0.216506    0.000000  
     -1.594080 -2.761040  0.000000     0.125000    0.216506    0.000000  
     -1.594080 -2.761040 -5.186410     0.125000    0.216506    0.000000  
      0.000003 -1.840693 -2.593205     0.125000    0.216506    0.000000  
      0.000003 -1.840693 -7.779615     0.125000    0.216506    0.000000  
     -3.188167 -1.840693 -2.593205    -0.125000   -0.216506    0.000000  
     -3.188167 -1.840693 -7.779615    -0.125000   -0.216506    0.000000  
      1.594093 -4.601733 -2.593205    -0.125000   -0.216506    0.000000  
      1.594093 -4.601733 -7.779615    -0.125000   -0.216506    0.000000  
     -1.594077 -4.601733 -2.593205     0.125000    0.216506    0.000000  
     -1.594077 -4.601733 -7.779615     0.125000    0.216506    0.000000  

  41 f  =    3.744725 THz    23.528800 2PiTHz  124.910572 cm-1    15.486943 meV
             X         Y         Z           dx          dy          dz
      0.000000  0.000000  0.000000    -0.250000   -0.000001    0.000000  
      0.000000  0.000000 -5.186410    -0.250000   -0.000001    0.000000  
     -3.188170  0.000000  0.000000    -0.250000   -0.000001    0.000000  
     -3.188170  0.000000 -5.186410    -0.250000   -0.000001    0.000000  
      1.594090 -2.761040  0.000000     0.250000    0.000001    0.000000  
      1.594090 -2.761040 -5.186410     0.250000    0.000001    0.000000  
     -1.594080 -2.761040  0.000000     0.250000    0.000001    0.000000  
     -1.594080 -2.761040 -5.186410     0.250000    0.000001    0.000000  
      0.000003 -1.840693 -2.593205     0.250000    0.000001    0.000000  
      0.000003 -1.840693 -7.779615     0.250000    0.000001    0.000000  
     -3.188167 -1.840693 -2.593205     0.250000    0.000001    0.000000  
     -3.188167 -1.840693 -7.779615     0.250000    0.000001    0.000000  
      1.594093 -4.601733 -2.593205    -0.250000   -0.000001    0.000000  
      1.594093 -4.601733 -7.779615    -0.250000   -0.000001    0.000000  
     -1.594077 -4.601733 -2.593205    -0.250000   -0.000001    0.000000  
     -1.594077 -4.601733 -7.779615    -0.250000   -0.000001    0.000000  

  42 f  =    2.826185 THz    17.757441 2PiTHz   94.271366 cm-1    11.688164 meV
             X         Y         Z           dx          dy          dz
      0.000000  0.000000  0.000000     0.135253   -0.272170    0.000000  
      0.000000  0.000000 -5.186410    -0.135253    0.272170    0.000000  
     -3.188170  0.000000  0.000000     0.135253   -0.272170    0.000000  
     -3.188170  0.000000 -5.186410    -0.135253    0.272170    0.000000  
      1.594090 -2.761040  0.000000     0.135253   -0.272170    0.000000  
      1.594090 -2.761040 -5.186410    -0.135253    0.272170    0.000000  
     -1.594080 -2.761040  0.000000     0.135253   -0.272170    0.000000  
     -1.594080 -2.761040 -5.186410    -0.135253    0.272170    0.000000  
      0.000003 -1.840693 -2.593205     0.080388   -0.161766    0.000000  
      0.000003 -1.840693 -7.779615    -0.080388    0.161766    0.000000  
     -3.188167 -1.840693 -2.593205     0.080388   -0.161766    0.000000  
     -3.188167 -1.840693 -7.779615    -0.080388    0.161766    0.000000  
      1.594093 -4.601733 -2.593205     0.080388   -0.161766    0.000000  
      1.594093 -4.601733 -7.779615    -0.080388    0.161766    0.000000  
     -1.594077 -4.601733 -2.593205     0.080388   -0.161766    0.000000  
     -1.594077 -4.601733 -7.779615    -0.080388    0.161766    0.000000  

  43 f  =    2.826185 THz    17.757441 2PiTHz   94.271366 cm-1    11.688164 meV
             X         Y         Z           dx          dy          dz
      0.000000  0.000000  0.000000    -0.080388    0.161766    0.000000  
      0.000000  0.000000 -5.186410     0.080388   -0.161766    0.000000  
     -3.188170  0.000000  0.000000    -0.080388    0.161766    0.000000  
     -3.188170  0.000000 -5.186410     0.080388   -0.161766    0.000000  
      1.594090 -2.761040  0.000000    -0.080388    0.161766    0.000000  
      1.594090 -2.761040 -5.186410     0.080388   -0.161766    0.000000  
     -1.594080 -2.761040  0.000000    -0.080388    0.161766    0.000000  
     -1.594080 -2.761040 -5.186410     0.080388   -0.161766    0.000000  
      0.000003 -1.840693 -2.593205     0.135253   -0.272170    0.000000  
      0.000003 -1.840693 -7.779615    -0.135253    0.272170    0.000000  
     -3.188167 -1.840693 -2.593205     0.135253   -0.272170    0.000000  
     -3.188167 -1.840693 -7.779615    -0.135253    0.272170    0.000000  
      1.594093 -4.601733 -2.593205     0.135253   -0.272170    0.000000  
      1.594093 -4.601733 -7.779615    -0.135253    0.272170    0.000000  
     -1.594077 -4.601733 -2.593205     0.135253   -0.272170    0.000000  
     -1.594077 -4.601733 -7.779615    -0.135253    0.272170    0.000000  

  44 f  =    2.826178 THz    17.757401 2PiTHz   94.271152 cm-1    11.688137 meV
             X         Y         Z           dx          dy          dz
      0.000000  0.000000  0.000000    -0.014862   -0.007386    0.000000  
      0.000000  0.000000 -5.186410     0.014862    0.007386    0.000000  
     -3.188170  0.000000  0.000000    -0.014862   -0.007386    0.000000  
     -3.188170  0.000000 -5.186410     0.014862    0.007386    0.000000  
      1.594090 -2.761040  0.000000    -0.014862   -0.007386    0.000000  
      1.594090 -2.761040 -5.186410     0.014862    0.007386    0.000000  
     -1.594080 -2.761040  0.000000    -0.014862   -0.007386    0.000000  
     -1.594080 -2.761040 -5.186410     0.014862    0.007386    0.000000  
      0.000003 -1.840693 -2.593205    -0.316265   -0.157165    0.000000  
      0.000003 -1.840693 -7.779615     0.316265    0.157165    0.000000  
     -3.188167 -1.840693 -2.593205    -0.316265   -0.157165    0.000000  
     -3.188167 -1.840693 -7.779615     0.316265    0.157165    0.000000  
      1.594093 -4.601733 -2.593205    -0.316265   -0.157165    0.000000  
      1.594093 -4.601733 -7.779615     0.316265    0.157165    0.000000  
     -1.594077 -4.601733 -2.593205    -0.316265   -0.157165    0.000000  
     -1.594077 -4.601733 -7.779615     0.316265    0.157165    0.000000  

  45 f  =    2.826178 THz    17.757401 2PiTHz   94.271152 cm-1    11.688137 meV
             X         Y         Z           dx          dy          dz
      0.000000  0.000000  0.000000     0.316265    0.157165    0.000000  
      0.000000  0.000000 -5.186410    -0.316265   -0.157165    0.000000  
     -3.188170  0.000000  0.000000     0.316265    0.157165    0.000000  
     -3.188170  0.000000 -5.186410    -0.316265   -0.157165    0.000000  
      1.594090 -2.761040  0.000000     0.316265    0.157165    0.000000  
      1.594090 -2.761040 -5.186410    -0.316265   -0.157165    0.000000  
     -1.594080 -2.761040  0.000000     0.316265    0.157165    0.000000  
     -1.594080 -2.761040 -5.186410    -0.316265   -0.157165    0.000000  
      0.000003 -1.840693 -2.593205    -0.014862   -0.007386    0.000000  
      0.000003 -1.840693 -7.779615     0.014862    0.007386    0.000000  
     -3.188167 -1.840693 -2.593205    -0.014862   -0.007386    0.000000  
     -3.188167 -1.840693 -7.779615     0.014862    0.007386    0.000000  
      1.594093 -4.601733 -2.593205    -0.014862   -0.007386    0.000000  
      1.594093 -4.601733 -7.779615     0.014862    0.007386    0.000000  
     -1.594077 -4.601733 -2.593205    -0.014862   -0.007386    0.000000  
     -1.594077 -4.601733 -7.779615     0.014862    0.007386    0.000000  

  46 f  =    0.000000 THz     0.000002 2PiTHz    0.000010 cm-1     0.000001 meV
             X         Y         Z           dx          dy          dz
      0.000000  0.000000  0.000000    -0.249283    0.007065   -0.017554  
      0.000000  0.000000 -5.186410    -0.249283    0.007065   -0.017554  
     -3.188170  0.000000  0.000000    -0.249283    0.007065   -0.017554  
     -3.188170  0.000000 -5.186410    -0.249283    0.007065   -0.017554  
      1.594090 -2.761040  0.000000    -0.249283    0.007065   -0.017554  
      1.594090 -2.761040 -5.186410    -0.249283    0.007065   -0.017554  
     -1.594080 -2.761040  0.000000    -0.249283    0.007065   -0.017554  
     -1.594080 -2.761040 -5.186410    -0.249283    0.007065   -0.017554  
      0.000003 -1.840693 -2.593205    -0.249283    0.007065   -0.017554  
      0.000003 -1.840693 -7.779615    -0.249283    0.007065   -0.017554  
     -3.188167 -1.840693 -2.593205    -0.249283    0.007065   -0.017554  
     -3.188167 -1.840693 -7.779615    -0.249283    0.007065   -0.017554  
      1.594093 -4.601733 -2.593205    -0.249283    0.007065   -0.017554  
      1.594093 -4.601733 -7.779615    -0.249283    0.007065   -0.017554  
     -1.594077 -4.601733 -2.593205    -0.249283    0.007065   -0.017554  
     -1.594077 -4.601733 -7.779615    -0.249283    0.007065   -0.017554  

  47 f  =    0.000000 THz     0.000001 2PiTHz    0.000006 cm-1     0.000001 meV
             X         Y         Z           dx          dy          dz
      0.000000  0.000000  0.000000    -0.017536    0.000892    0.249383  
      0.000000  0.000000 -5.186410    -0.017536    0.000892    0.249383  
     -3.188170  0.000000  0.000000    -0.017536    0.000892    0.249383  
     -3.188170  0.000000 -5.186410    -0.017536    0.000892    0.249383  
      1.594090 -2.761040  0.000000    -0.017536    0.000892    0.249383  
      1.594090 -2.761040 -5.186410    -0.017536    0.000892    0.249383  
     -1.594080 -2.761040  0.000000    -0.017536    0.000892    0.249383  
     -1.594080 -2.761040 -5.186410    -0.017536    0.000892    0.249383  
      0.000003 -1.840693 -2.593205    -0.017536    0.000892    0.249383  
      0.000003 -1.840693 -7.779615    -0.017536    0.000892    0.249383  
     -3.188167 -1.840693 -2.593205    -0.017536    0.000892    0.249383  
     -3.188167 -1.840693 -7.779615    -0.017536    0.000892    0.249383  
      1.594093 -4.601733 -2.593205    -0.017536    0.000892    0.249383  
      1.594093 -4.601733 -7.779615    -0.017536    0.000892    0.249383  
     -1.594077 -4.601733 -2.593205    -0.017536    0.000892    0.249383  
     -1.594077 -4.601733 -7.779615    -0.017536    0.000892    0.249383  

  48 f/i=    0.000000 THz     0.000001 2PiTHz    0.000004 cm-1     0.000001 meV
             X         Y         Z           dx          dy          dz
      0.000000  0.000000  0.000000    -0.007110   -0.249899    0.000394  
      0.000000  0.000000 -5.186410    -0.007110   -0.249899    0.000394  
     -3.188170  0.000000  0.000000    -0.007110   -0.249899    0.000394  
     -3.188170  0.000000 -5.186410    -0.007110   -0.249899    0.000394  
      1.594090 -2.761040  0.000000    -0.007110   -0.249899    0.000394  
      1.594090 -2.761040 -5.186410    -0.007110   -0.249899    0.000394  
     -1.594080 -2.761040  0.000000    -0.007110   -0.249899    0.000394  
     -1.594080 -2.761040 -5.186410    -0.007110   -0.249899    0.000394  
      0.000003 -1.840693 -2.593205    -0.007110   -0.249899    0.000394  
      0.000003 -1.840693 -7.779615    -0.007110   -0.249899    0.000394  
     -3.188167 -1.840693 -2.593205    -0.007110   -0.249899    0.000394  
     -3.188167 -1.840693 -7.779615    -0.007110   -0.249899    0.000394  
      1.594093 -4.601733 -2.593205    -0.007110   -0.249899    0.000394  
      1.594093 -4.601733 -7.779615    -0.007110   -0.249899    0.000394  
     -1.594077 -4.601733 -2.593205    -0.007110   -0.249899    0.000394  
     -1.594077 -4.601733 -7.779615    -0.007110   -0.249899    0.000394  



--------------------------------------------------------------------------------------------------------


  Warning from LATTYP: Monoclinic adjustement (A1->A3, A2->A1, A3->A2)!
  LATTYP: Found a hexagonal cell.
 ALAT       =     6.3763415617
 C/A-ratio  =     1.6267666811
  
  Lattice vectors:
  
 A1 = (  -3.1881600000,  -5.5220800000,   0.0000000000)
 A2 = (   6.3763400000,   0.0000000000,   0.0000000000)
 A3 = (   0.0000000000,   0.0000000000,  10.3728200000)
 Subroutine PRICEL returns following result:
 
  LATTYP: Found a hexagonal cell.
 ALAT       =     3.1881707809
 C/A-ratio  =     1.6267666811
  
  Lattice vectors:
  
 A1 = (   1.5940900000,  -2.7610400000,   0.0000000000)
 A2 = (  -3.1881700000,   0.0000000000,   0.0000000000)
 A3 = (   0.0000000000,   0.0000000000,  -5.1864100000)
 
   8 primitive cells build up your supercell.
 

Analysis of symmetry for initial positions (statically):

 Routine SETGRP: Setting up the symmetry group for a 
 hexagonal supercell.


 Subroutine GETGRP returns: Found 24 space group operations
 (whereof 12 operations were pure point group operations)
 out of a pool of 24 trial point group operations.


The static configuration has the point symmetry D_3h.
 The point group associated with its full space group is D_6h.

Analysis of symmetry for dynamics (positions and initial velocities):

 Subroutine DYNSYM returns: Found 24 space group operations
 (whereof 12 operations were pure point group operations)
 out of a pool of 24 trial space group operations
 (whereof 12 operations were pure point group operations)
 and found also     8 'primitive' translations


The dynamic configuration has the point symmetry D_3h.
 The point group associated with its full space group is D_6h.

 KPOINTS: Magnesium                               

Automatic generation of k-mesh.
 
 Subroutine IBZKPT returns following result:
 ===========================================
 
 Found      6 irreducible k-points:
 
 Following reciprocal coordinates:
            Coordinates               Weight
  0.000000  0.000000  0.000000      1.000000
  0.333333  0.000000  0.000000      6.000000
  0.333333  0.333333  0.000000      2.000000
  0.000000  0.000000  0.333333      2.000000
  0.333333  0.000000  0.333333     12.000000
  0.333333  0.333333  0.333333      4.000000
 
 Following cartesian coordinates:
            Coordinates               Weight
  0.000000  0.000000  0.000000      1.000000
  0.000000 -0.060364  0.000000      6.000000
 -0.052277 -0.090546  0.000000      2.000000
  0.000000  0.000000 -0.032135      2.000000
  0.000000 -0.060364 -0.032135     12.000000
 -0.052277 -0.090546 -0.032135      4.000000
 
 writing wavefunctions
     LOOP+:  cpu time    4.37: real time    4.41
    4ORBIT:  cpu time    0.00: real time    0.00

 total amount of memory used by VASP on root node    38655. kBytes
========================================================================

   base      :      30000. kBytes
   nonl-proj :       1628. kBytes
   fftplans  :       1803. kBytes
   grid      :       4149. kBytes
   one-center:         49. kBytes
   wavefun   :       1026. kBytes

  
  
 General timing and accounting informations for this job:
 ========================================================
  
                  Total CPU time used (sec):       29.917
                            User time (sec):       28.503
                          System time (sec):        1.415
                         Elapsed time (sec):       33.221
  
                   Maximum memory used (kb):       40644.
                   Average memory used (kb):           0.
  
                          Minor page faults:       939331
                          Major page faults:            0
                 Voluntary context switches:        18354
